# vtk DataFile Version 3.0
Unnamed
ASCII

DATASET UNSTRUCTURED_GRID
POINTS 861 float
0 0 0.0
0 0.05 0.0
0 0.1 0.0
0 0.15 0.0
0 0.2 0.0
0 0.25 0.0
0 0.3 0.0
0 0.35 0.0
0 0.4 0.0
0 0.45 0.0
0 0.5 0.0
0 0.55 0.0
0 0.6000000000000001 0.0
0 0.65 0.0
0 0.7000000000000001 0.0
0 0.75 0.0
0 0.8 0.0
0 0.8500000000000001 0.0
0 0.9 0.0
0 0.9500000000000001 0.0
0 1 0.0
0.05 0 0.0
0.05 0.05 0.0
0.05 0.1 0.0
0.05 0.15 0.0
0.05 0.2 0.0
0.05 0.25 0.0
0.05 0.3 0.0
0.05 0.35 0.0
0.05 0.4 0.0
0.05 0.45 0.0
0.05 0.5 0.0
0.05 0.55 0.0
0.05 0.6000000000000001 0.0
0.05 0.65 0.0
0.05 0.7000000000000001 0.0
0.05 0.75 0.0
0.05 0.8 0.0
0.05 0.8500000000000001 0.0
0.05 0.9 0.0
0.05 0.9500000000000001 0.0
0.05 1 0.0
0.1 0 0.0
0.1 0.05 0.0
0.1 0.1 0.0
0.1 0.15 0.0
0.1 0.2 0.0
0.1 0.25 0.0
0.1 0.3 0.0
0.1 0.35 0.0
0.1 0.4 0.0
0.1 0.45 0.0
0.1 0.5 0.0
0.1 0.55 0.0
0.1 0.6000000000000001 0.0
0.1 0.65 0.0
0.1 0.7000000000000001 0.0
0.1 0.75 0.0
0.1 0.8 0.0
0.1 0.8500000000000001 0.0
0.1 0.9 0.0
0.1 0.9500000000000001 0.0
0.1 1 0.0
0.15 0 0.0
0.15 0.05 0.0
0.15 0.1 0.0
0.15 0.15 0.0
0.15 0.2 0.0
0.15 0.25 0.0
0.15 0.3 0.0
0.15 0.35 0.0
0.15 0.4 0.0
0.15 0.45 0.0
0.15 0.5 0.0
0.15 0.55 0.0
0.15 0.6000000000000001 0.0
0.15 0.65 0.0
0.15 0.7000000000000001 0.0
0.15 0.75 0.0
0.15 0.8 0.0
0.15 0.8500000000000001 0.0
0.15 0.9 0.0
0.15 0.9500000000000001 0.0
0.15 1 0.0
0.2 0 0.0
0.2 0.05 0.0
0.2 0.1 0.0
0.2 0.15 0.0
0.2 0.2 0.0
0.2 0.25 0.0
0.2 0.3 0.0
0.2 0.35 0.0
0.2 0.4 0.0
0.2 0.45 0.0
0.2 0.5 0.0
0.2 0.55 0.0
0.2 0.6000000000000001 0.0
0.2 0.65 0.0
0.2 0.7000000000000001 0.0
0.2 0.75 0.0
0.2 0.8 0.0
0.2 0.8500000000000001 0.0
0.2 0.9 0.0
0.2 0.9500000000000001 0.0
0.2 1 0.0
0.25 0 0.0
0.25 0.05 0.0
0.25 0.1 0.0
0.25 0.15 0.0
0.25 0.2 0.0
0.25 0.25 0.0
0.25 0.3 0.0
0.25 0.35 0.0
0.25 0.4 0.0
0.25 0.45 0.0
0.25 0.5 0.0
0.25 0.55 0.0
0.25 0.6000000000000001 0.0
0.25 0.65 0.0
0.25 0.7000000000000001 0.0
0.25 0.75 0.0
0.25 0.8 0.0
0.25 0.8500000000000001 0.0
0.25 0.9 0.0
0.25 0.9500000000000001 0.0
0.25 1 0.0
0.3 0 0.0
0.3 0.05 0.0
0.3 0.1 0.0
0.3 0.15 0.0
0.3 0.2 0.0
0.3 0.25 0.0
0.3 0.3 0.0
0.3 0.35 0.0
0.3 0.4 0.0
0.3 0.45 0.0
0.3 0.5 0.0
0.3 0.55 0.0
0.3 0.6000000000000001 0.0
0.3 0.65 0.0
0.3 0.7000000000000001 0.0
0.3 0.75 0.0
0.3 0.8 0.0
0.3 0.8500000000000001 0.0
0.3 0.9 0.0
0.3 0.9500000000000001 0.0
0.3 1 0.0
0.35 0 0.0
0.35 0.05 0.0
0.35 0.1 0.0
0.35 0.15 0.0
0.35 0.2 0.0
0.35 0.25 0.0
0.35 0.3 0.0
0.35 0.35 0.0
0.35 0.4 0.0
0.35 0.45 0.0
0.35 0.5 0.0
0.35 0.55 0.0
0.35 0.6000000000000001 0.0
0.35 0.65 0.0
0.35 0.7000000000000001 0.0
0.35 0.75 0.0
0.35 0.8 0.0
0.35 0.8500000000000001 0.0
0.35 0.9 0.0
0.35 0.9500000000000001 0.0
0.35 1 0.0
0.4 0 0.0
0.4 0.05 0.0
0.4 0.1 0.0
0.4 0.15 0.0
0.4 0.2 0.0
0.4 0.25 0.0
0.4 0.3 0.0
0.4 0.35 0.0
0.4 0.4 0.0
0.4 0.45 0.0
0.4 0.5 0.0
0.4 0.55 0.0
0.4 0.6000000000000001 0.0
0.4 0.65 0.0
0.4 0.7000000000000001 0.0
0.4 0.75 0.0
0.4 0.8 0.0
0.4 0.8500000000000001 0.0
0.4 0.9 0.0
0.4 0.9500000000000001 0.0
0.4 1 0.0
0.45 0 0.0
0.45 0.05 0.0
0.45 0.1 0.0
0.45 0.15 0.0
0.45 0.2 0.0
0.45 0.25 0.0
0.45 0.3 0.0
0.45 0.35 0.0
0.45 0.4 0.0
0.45 0.45 0.0
0.45 0.5 0.0
0.45 0.55 0.0
0.45 0.6000000000000001 0.0
0.45 0.65 0.0
0.45 0.7000000000000001 0.0
0.45 0.75 0.0
0.45 0.8 0.0
0.45 0.8500000000000001 0.0
0.45 0.9 0.0
0.45 0.9500000000000001 0.0
0.45 1 0.0
0.5 0 0.0
0.5 0.05 0.0
0.5 0.1 0.0
0.5 0.15 0.0
0.5 0.2 0.0
0.5 0.25 0.0
0.5 0.3 0.0
0.5 0.35 0.0
0.5 0.4 0.0
0.5 0.45 0.0
0.5 0.5 0.0
0.5 0.55 0.0
0.5 0.6000000000000001 0.0
0.5 0.65 0.0
0.5 0.7000000000000001 0.0
0.5 0.75 0.0
0.5 0.8 0.0
0.5 0.8500000000000001 0.0
0.5 0.9 0.0
0.5 0.9500000000000001 0.0
0.5 1 0.0
0.55 0 0.0
0.55 0.05 0.0
0.55 0.1 0.0
0.55 0.15 0.0
0.55 0.2 0.0
0.55 0.25 0.0
0.55 0.3 0.0
0.55 0.35 0.0
0.55 0.4 0.0
0.55 0.45 0.0
0.55 0.5 0.0
0.55 0.55 0.0
0.55 0.6000000000000001 0.0
0.55 0.65 0.0
0.55 0.7000000000000001 0.0
0.55 0.75 0.0
0.55 0.8 0.0
0.55 0.8500000000000001 0.0
0.55 0.9 0.0
0.55 0.9500000000000001 0.0
0.55 1 0.0
0.6000000000000001 0 0.0
0.6000000000000001 0.05 0.0
0.6000000000000001 0.1 0.0
0.6000000000000001 0.15 0.0
0.6000000000000001 0.2 0.0
0.6000000000000001 0.25 0.0
0.6000000000000001 0.3 0.0
0.6000000000000001 0.35 0.0
0.6000000000000001 0.4 0.0
0.6000000000000001 0.45 0.0
0.6000000000000001 0.5 0.0
0.6000000000000001 0.55 0.0
0.6000000000000001 0.6000000000000001 0.0
0.6000000000000001 0.65 0.0
0.6000000000000001 0.7000000000000001 0.0
0.6000000000000001 0.75 0.0
0.6000000000000001 0.8 0.0
0.6000000000000001 0.8500000000000001 0.0
0.6000000000000001 0.9 0.0
0.6000000000000001 0.9500000000000001 0.0
0.6000000000000001 1 0.0
0.65 0 0.0
0.65 0.05 0.0
0.65 0.1 0.0
0.65 0.15 0.0
0.65 0.2 0.0
0.65 0.25 0.0
0.65 0.3 0.0
0.65 0.35 0.0
0.65 0.4 0.0
0.65 0.45 0.0
0.65 0.5 0.0
0.65 0.55 0.0
0.65 0.6000000000000001 0.0
0.65 0.65 0.0
0.65 0.7000000000000001 0.0
0.65 0.75 0.0
0.65 0.8 0.0
0.65 0.8500000000000001 0.0
0.65 0.9 0.0
0.65 0.9500000000000001 0.0
0.65 1 0.0
0.7000000000000001 0 0.0
0.7000000000000001 0.05 0.0
0.7000000000000001 0.1 0.0
0.7000000000000001 0.15 0.0
0.7000000000000001 0.2 0.0
0.7000000000000001 0.25 0.0
0.7000000000000001 0.3 0.0
0.7000000000000001 0.35 0.0
0.7000000000000001 0.4 0.0
0.7000000000000001 0.45 0.0
0.7000000000000001 0.5 0.0
0.7000000000000001 0.55 0.0
0.7000000000000001 0.6000000000000001 0.0
0.7000000000000001 0.65 0.0
0.7000000000000001 0.7000000000000001 0.0
0.7000000000000001 0.75 0.0
0.7000000000000001 0.8 0.0
0.7000000000000001 0.8500000000000001 0.0
0.7000000000000001 0.9 0.0
0.7000000000000001 0.9500000000000001 0.0
0.7000000000000001 1 0.0
0.75 0 0.0
0.75 0.05 0.0
0.75 0.1 0.0
0.75 0.15 0.0
0.75 0.2 0.0
0.75 0.25 0.0
0.75 0.3 0.0
0.75 0.35 0.0
0.75 0.4 0.0
0.75 0.45 0.0
0.75 0.5 0.0
0.75 0.55 0.0
0.75 0.6000000000000001 0.0
0.75 0.65 0.0
0.75 0.7000000000000001 0.0
0.75 0.75 0.0
0.75 0.8 0.0
0.75 0.8500000000000001 0.0
0.75 0.9 0.0
0.75 0.9500000000000001 0.0
0.75 1 0.0
0.8 0 0.0
0.8 0.05 0.0
0.8 0.1 0.0
0.8 0.15 0.0
0.8 0.2 0.0
0.8 0.25 0.0
0.8 0.3 0.0
0.8 0.35 0.0
0.8 0.4 0.0
0.8 0.45 0.0
0.8 0.5 0.0
0.8 0.55 0.0
0.8 0.6000000000000001 0.0
0.8 0.65 0.0
0.8 0.7000000000000001 0.0
0.8 0.75 0.0
0.8 0.8 0.0
0.8 0.8500000000000001 0.0
0.8 0.9 0.0
0.8 0.9500000000000001 0.0
0.8 1 0.0
0.8500000000000001 0 0.0
0.8500000000000001 0.05 0.0
0.8500000000000001 0.1 0.0
0.8500000000000001 0.15 0.0
0.8500000000000001 0.2 0.0
0.8500000000000001 0.25 0.0
0.8500000000000001 0.3 0.0
0.8500000000000001 0.35 0.0
0.8500000000000001 0.4 0.0
0.8500000000000001 0.45 0.0
0.8500000000000001 0.5 0.0
0.8500000000000001 0.55 0.0
0.8500000000000001 0.6000000000000001 0.0
0.8500000000000001 0.65 0.0
0.8500000000000001 0.7000000000000001 0.0
0.8500000000000001 0.75 0.0
0.8500000000000001 0.8 0.0
0.8500000000000001 0.8500000000000001 0.0
0.8500000000000001 0.9 0.0
0.8500000000000001 0.9500000000000001 0.0
0.8500000000000001 1 0.0
0.9 0 0.0
0.9 0.05 0.0
0.9 0.1 0.0
0.9 0.15 0.0
0.9 0.2 0.0
0.9 0.25 0.0
0.9 0.3 0.0
0.9 0.35 0.0
0.9 0.4 0.0
0.9 0.45 0.0
0.9 0.5 0.0
0.9 0.55 0.0
0.9 0.6000000000000001 0.0
0.9 0.65 0.0
0.9 0.7000000000000001 0.0
0.9 0.75 0.0
0.9 0.8 0.0
0.9 0.8500000000000001 0.0
0.9 0.9 0.0
0.9 0.9500000000000001 0.0
0.9 1 0.0
0.9500000000000001 0 0.0
0.9500000000000001 0.05 0.0
0.9500000000000001 0.1 0.0
0.9500000000000001 0.15 0.0
0.9500000000000001 0.2 0.0
0.9500000000000001 0.25 0.0
0.9500000000000001 0.3 0.0
0.9500000000000001 0.35 0.0
0.9500000000000001 0.4 0.0
0.9500000000000001 0.45 0.0
0.9500000000000001 0.5 0.0
0.9500000000000001 0.55 0.0
0.9500000000000001 0.6000000000000001 0.0
0.9500000000000001 0.65 0.0
0.9500000000000001 0.7000000000000001 0.0
0.9500000000000001 0.75 0.0
0.9500000000000001 0.8 0.0
0.9500000000000001 0.8500000000000001 0.0
0.9500000000000001 0.9 0.0
0.9500000000000001 0.9500000000000001 0.0
0.9500000000000001 1 0.0
1 0 0.0
1 0.05 0.0
1 0.1 0.0
1 0.15 0.0
1 0.2 0.0
1 0.25 0.0
1 0.3 0.0
1 0.35 0.0
1 0.4 0.0
1 0.45 0.0
1 0.5 0.0
1 0.55 0.0
1 0.6000000000000001 0.0
1 0.65 0.0
1 0.7000000000000001 0.0
1 0.75 0.0
1 0.8 0.0
1 0.8500000000000001 0.0
1 0.9 0.0
1 0.9500000000000001 0.0
1 1 0.0
1.05 0 0.0
1.05 0.05 0.0
1.05 0.1 0.0
1.05 0.15 0.0
1.05 0.2 0.0
1.05 0.25 0.0
1.05 0.3 0.0
1.05 0.35 0.0
1.05 0.4 0.0
1.05 0.45 0.0
1.05 0.5 0.0
1.05 0.55 0.0
1.05 0.6000000000000001 0.0
1.05 0.65 0.0
1.05 0.7000000000000001 0.0
1.05 0.75 0.0
1.05 0.8 0.0
1.05 0.8500000000000001 0.0
1.05 0.9 0.0
1.05 0.9500000000000001 0.0
1.05 1 0.0
1.1 0 0.0
1.1 0.05 0.0
1.1 0.1 0.0
1.1 0.15 0.0
1.1 0.2 0.0
1.1 0.25 0.0
1.1 0.3 0.0
1.1 0.35 0.0
1.1 0.4 0.0
1.1 0.45 0.0
1.1 0.5 0.0
1.1 0.55 0.0
1.1 0.6000000000000001 0.0
1.1 0.65 0.0
1.1 0.7000000000000001 0.0
1.1 0.75 0.0
1.1 0.8 0.0
1.1 0.8500000000000001 0.0
1.1 0.9 0.0
1.1 0.9500000000000001 0.0
1.1 1 0.0
1.15 0 0.0
1.15 0.05 0.0
1.15 0.1 0.0
1.15 0.15 0.0
1.15 0.2 0.0
1.15 0.25 0.0
1.15 0.3 0.0
1.15 0.35 0.0
1.15 0.4 0.0
1.15 0.45 0.0
1.15 0.5 0.0
1.15 0.55 0.0
1.15 0.6000000000000001 0.0
1.15 0.65 0.0
1.15 0.7000000000000001 0.0
1.15 0.75 0.0
1.15 0.8 0.0
1.15 0.8500000000000001 0.0
1.15 0.9 0.0
1.15 0.9500000000000001 0.0
1.15 1 0.0
1.2 0 0.0
1.2 0.05 0.0
1.2 0.1 0.0
1.2 0.15 0.0
1.2 0.2 0.0
1.2 0.25 0.0
1.2 0.3 0.0
1.2 0.35 0.0
1.2 0.4 0.0
1.2 0.45 0.0
1.2 0.5 0.0
1.2 0.55 0.0
1.2 0.6000000000000001 0.0
1.2 0.65 0.0
1.2 0.7000000000000001 0.0
1.2 0.75 0.0
1.2 0.8 0.0
1.2 0.8500000000000001 0.0
1.2 0.9 0.0
1.2 0.9500000000000001 0.0
1.2 1 0.0
1.25 0 0.0
1.25 0.05 0.0
1.25 0.1 0.0
1.25 0.15 0.0
1.25 0.2 0.0
1.25 0.25 0.0
1.25 0.3 0.0
1.25 0.35 0.0
1.25 0.4 0.0
1.25 0.45 0.0
1.25 0.5 0.0
1.25 0.55 0.0
1.25 0.6000000000000001 0.0
1.25 0.65 0.0
1.25 0.7000000000000001 0.0
1.25 0.75 0.0
1.25 0.8 0.0
1.25 0.8500000000000001 0.0
1.25 0.9 0.0
1.25 0.9500000000000001 0.0
1.25 1 0.0
1.3 0 0.0
1.3 0.05 0.0
1.3 0.1 0.0
1.3 0.15 0.0
1.3 0.2 0.0
1.3 0.25 0.0
1.3 0.3 0.0
1.3 0.35 0.0
1.3 0.4 0.0
1.3 0.45 0.0
1.3 0.5 0.0
1.3 0.55 0.0
1.3 0.6000000000000001 0.0
1.3 0.65 0.0
1.3 0.7000000000000001 0.0
1.3 0.75 0.0
1.3 0.8 0.0
1.3 0.8500000000000001 0.0
1.3 0.9 0.0
[...]
POINT_DATA 861
SCALARS y0 float
LOOKUP_TABLE default
1.83712
0.725738
0.591811
1.4157
0.333675
0.529813
0.488017
1.40893
2.17169
3.00864
1.75539
1.82568
0.379961
0.210482
0.130486
0.193406
0.519489
0.550175
0.441866
0.700023
0.927566
1.71509
0.60745
0.42235
0.76945
0.530741
0.648312
1.88812
1.91209
1.47764
1.29178
1.2027
0.382587
0.387459
0.499187
0.474421
0.565269
0.583292
0.803329
0.80843
1.02539
0.796882
0.940108
0.465283
0.55335
1.7538
0.780989
2.48111
2.29004
2.91341
2.54802
0.996415
0.867792
0.25481
0.502217
0.775114
1.81163
0.693525
0.924308
0.868116
2.22879
0.851706
0.712892
1.77029
0.646738
0.400905
0.948336
0.807217
2.46461
3.06438
2.09177
2.53222
3.22925
2.09046
0.645712
0.296672
2.1501
2.71607
1.1886
0.803152
0.647179
1.39661
1.629
0.708651
1.22692
1.37955
0.778838
0.548119
0.335248
0.738973
1.80917
3.40551
4.05452
3.05135
1.30732
1.70863
0.957479
3.10035
7.68645
1.63819
0.495155
0.348735
0.834842
0.209918
0.401772
0.578055
1.3693
0.618296
0.578038
0.873801
1.12997
1.31423
1.79499
2.99049
2.28889
8.39788
5.62888
4.24715
5.5762
2.03683
0.387687
0.529012
0.304926
0.243494
0.31061
0.27629
2.26414
1.58142
2.4622
0.994133
0.736243
0.805136
0.366852
0.710627
1.33696
0.985729
2.11445
3.72427
5.85388
1.70471
0.935865
0.986611
0.443451
0.129786
0.146637
0.313605
0.333985
3.11552
2.11452
2.41354
1.37772
0.885082
0.710388
0.443558
0.550746
0.837377
0.903381
1.79564
2.64216
3.16735
1.80986
1.00518
1.58605
1.12361
0.47805
0.217514
0.278289
0.166207
4.89384
4.85289
2.30713
2.07231
0.891377
0.353131
0.337259
0.219606
0.612811
0.979572
1.32347
2.44478
1.64864
0.798242
0.613001
0.869596
1.09052
0.824824
0.197851
0.157738
0.273129
1.60786
2.34329
1.45818
1.06519
2.0909
1.30771
0.269726
0.202281
0.361569
0.85501
0.746561
1.75954
0.806339
0.426485
0.933901
1.01473
1.17668
0.916161
0.269884
0.169032
0.231808
0.792523
0.615313
1.82284
1.06766
0.524195
0.965132
2.23885
1.64849
0.370078
0.350891
0.897734
0.759023
0.670847
0.481047
0.610006
0.531527
0.198154
0.338682
0.283719
0.327103
0.337476
0.469058
0.473232
1.0885
0.745
0.235462
0.501065
1.29357
0.977529
1.07127
0.647913
0.889002
0.554429
0.238143
0.260634
0.307842
0.313762
0.346181
0.472216
0.633957
1.06751
0.964473
1.20134
1.05742
2.33528
1.52857
0.40764
0.400244
0.522407
1.53116
0.363571
0.648407
0.381633
0.211622
0.230772
0.347185
0.195355
0.283385
0.522093
0.618691
0.855392
0.965644
0.521438
0.70906
0.461349
1.61801
0.931152
0.359031
0.193232
1.02713
1.33783
1.23907
0.973177
0.39619
0.39411
0.471144
0.542449
0.485715
0.367841
1.10183
0.764931
1.11758
1.95274
0.858466
0.28445
0.864788
0.739802
0.579661
0.355043
0.255606
1.47241
2.42556
3.14426
1.07091
0.679979
1.52635
1.14941
0.442028
0.293098
0.384409
0.469188
0.518374
1.12708
0.955774
0.677347
0.456019
0.585137
0.926728
0.468694
0.625497
0.870327
0.456005
0.863069
1.01943
1.01667
1.34991
1.99288
1.81175
0.426818
0.570657
0.829041
0.682205
0.894497
0.388748
0.708918
0.978829
0.409496
0.4346
1.14343
1.80857
2.88942
1.67859
1.05007
1.03737
1.39332
1.05399
1.79234
0.592202
1.0534
1.10202
0.66777
0.676041
0.401036
0.544945
0.291138
0.512453
1.0705
0.448189
0.509636
1.16152
0.875182
2.84772
2.55942
1.50575
1.57933
2.22926
3.83366
1.33846
2.2643
1.76179
1.09023
1.02679
0.871326
0.650519
1.09753
0.523134
0.580063
1.39647
0.444748
0.367226
0.940653
0.54083
1.75719
3.53032
1.60318
4.00225
4.03911
4.37407
3.35542
5.75836
2.87678
1.4134
1.29794
2.06004
1.31361
1.2902
0.870479
0.724553
3.25151
0.755958
0.52185
0.573024
0.397403
0.467382
1.43596
2.67584
3.1013
5.33232
6.71702
7.68519
7.06629
3.05671
5.07493
3.15878
2.59047
1.31483
1.67898
2.31179
1.36535
4.93306
0.637509
0.65512
1.11785
0.703011
2.17476
3.37586
6.05166
9.54016
6.42192
5.10627
6.34038
4.70067
4.96493
4.03413
2.09662
3.74315
2.69648
1.67626
1.08603
1.14604
3.55157
1.08687
1.96977
1.31822
0.501135
1.8379
3.15125
2.67199
3.29469
5.37194
10.8976
3.54075
2.4095
2.02893
9.01235
2.05889
2.63664
4.04179
2.1043
1.20744
0.993504
1.61549
1.32041
0.781329
0.753659
0.416573
0.836339
2.51787
1.4687
1.61289
2.49523
3.24851
8.74986
1.45498
1.13952
2.0156
4.28762
1.73673
3.16752
3.07834
1.71094
2.11045
1.78709
0.496399
0.312579
0.856191
0.544862
1.61215
2.62089
1.67671
1.16264
2.09759
5.13156
1.35302
1.74634
2.54722
3.07374
0.727952
1.02044
2.64509
2.78726
0.991004
1.51351
1.37529
0.255784
0.691235
0.562691
0.81172
0.775482
1.08197
1.39955
2.42676
2.35806
2.00264
2.4341
2.12377
1.62962
2.27095
1.72643
1.18446
1.90197
1.16673
2.31631
2.61338
2.93446
0.469217
0.716941
0.620759
0.423034
0.778173
0.959379
1.28145
3.95676
5.85535
1.97994
1.02373
1.10623
2.3407
1.11053
4.98284
2.61394
1.59673
1.36008
1.51301
2.43871
3.52245
0.422032
0.836653
0.908584
0.874488
0.431288
0.72923
2.43823
2.94565
1.81852
2.25945
1.85051
0.720667
1.07113
2.39337
4.32029
2.85585
1.51672
1.20252
0.779997
1.52881
1.73825
0.947485
0.320137
0.36931
0.969061
0.734294
2.62541
2.36205
2.36775
1.54973
1.77363
0.518721
1.18508
0.622972
2.06424
4.03497
1.4184
1.84088
2.61104
1.50489
0.461295
1.00772
1.16222
0.940954
1.18534
0.953283
0.673033
2.40297
2.6973
3.31984
2.34291
2.63491
2.74571
4.39185
3.30821
2.01149
2.3599
2.01643
2.38816
2.34959
1.88305
0.855635
1.72391
1.79262
0.373205
1.32566
1.24601
3.2268
2.66304
5.54334
2.89145
1.52669
1.53254
3.49748
4.27628
1.4554
1.68585
1.86949
2.06142
1.29025
1.25479
1.9015
0.897353
0.668943
1.30857
1.41157
0.749109
0.917782
4.33902
2.8438
8.35372
3.34684
1.51944
1.23097
3.90444
3.84606
2.58337
3.75281
0.961643
2.13868
1.93105
0.726639
1.10999
1.24862
1.57437
1.01811
0.483679
0.707087
0.685428
0.723386
1.36171
2.01392
1.56679
1.16087
2.15455
3.51568
2.67509
1.84516
2.32717
3.86294
2.17828
1.76864
0.95155
1.18911
0.679416
0.717716
0.508283
0.304488
0.552805
2.9891
1.21039
2.63968
0.850018
1.45195
2.82547
5.23644
6.70087
7.7126
6.11342
4.55848
4.39304
2.52751
2.52363
0.828774
0.339752
0.562568
0.772307
0.516042
1.51214
2.13248
2.66522
2.11049
1.35588
2.03134
1.08207
0.887089
2.75594
2.83998
10.8472
8.40006
5.82435
3.74935
5.09221
2.141
1.00481
0.596788
0.613584
0.660302
0.951846
0.811404
2.20751
1.15545
0.627169
1.05264
1.85704
1.51071
1.63732
3.14357
3.34528
3.30704
3.27686
3.47571
3.05555
1.72238
1.14656
0.536115
0.377333
0.473729
0.228049
0.395647
1.72587
2.30363
0.898058
0.665792
0.199841
0.529542
0.836096
0.864986
1.09373
2.0844
0.839824
1.50062
1.29377
1.02102
0.781349
0.689203
0.244648
0.164208
0.23122
0.544494
0.757774
2.35618
1.50133
0.644403
0.6836
0.695919
0.551293
0.674046
0.547577
0.306463
0.562274
0.395599
1.1726
1.50001
0.416017
0.345029
0.353806
0.305452
0.286144
0.350514
0.185976
0.768021
0.923952
1.8998
0.584263
0.403924
0.263722
0.397124
0.918477
0.686496
0.263942
0.405117
0.246252
0.835095
1.56306
1.88611
0.647205
0.339871
0.620079
0.701054
0.517774
0.410228
0.758659
1.08375
1.46699
1.4957
1.70935
0.479821
0.410111
0.805551
0.744687
0.255293
0.503927
0.418729
0.863439
2.71651
1.04656
1.43038
0.340249
0.670965
0.844469
0.555302
0.395495
4.52418
5.64031
2.79089
1.77827
1.535
0.977389
0.51995
1.14581
1.60461
0.692517
0.286375
0.326481
0.551358
1.01867
1.15802
1.90222
1.36593
0.925503
0.411337
0.439638
0.369567
1.25743
2.50663
1.18449
1.26936
1.01688
0.611771
0.8476
1.89327
1.33881
0.476653
0.371294
0.519994
0.678329
0.387374
0.962482
2.12238
1.66104
1.44725
0.671363
0.481315
0.645615
