# vtk DataFile Version 3.0
Unnamed
ASCII

DATASET UNSTRUCTURED_GRID
POINTS 861 float
0 0 0.0
0 0.05 0.0
0 0.1 0.0
0 0.15 0.0
0 0.2 0.0
0 0.25 0.0
0 0.3 0.0
0 0.35 0.0
0 0.4 0.0
0 0.45 0.0
0 0.5 0.0
0 0.55 0.0
0 0.6000000000000001 0.0
0 0.65 0.0
0 0.7000000000000001 0.0
0 0.75 0.0
0 0.8 0.0
0 0.8500000000000001 0.0
0 0.9 0.0
0 0.9500000000000001 0.0
0 1 0.0
0.05 0 0.0
0.05 0.05 0.0
0.05 0.1 0.0
0.05 0.15 0.0
0.05 0.2 0.0
0.05 0.25 0.0
0.05 0.3 0.0
0.05 0.35 0.0
0.05 0.4 0.0
0.05 0.45 0.0
0.05 0.5 0.0
0.05 0.55 0.0
0.05 0.6000000000000001 0.0
0.05 0.65 0.0
0.05 0.7000000000000001 0.0
0.05 0.75 0.0
0.05 0.8 0.0
0.05 0.8500000000000001 0.0
0.05 0.9 0.0
0.05 0.9500000000000001 0.0
0.05 1 0.0
0.1 0 0.0
0.1 0.05 0.0
0.1 0.1 0.0
0.1 0.15 0.0
0.1 0.2 0.0
0.1 0.25 0.0
0.1 0.3 0.0
0.1 0.35 0.0
0.1 0.4 0.0
0.1 0.45 0.0
0.1 0.5 0.0
0.1 0.55 0.0
0.1 0.6000000000000001 0.0
0.1 0.65 0.0
0.1 0.7000000000000001 0.0
0.1 0.75 0.0
0.1 0.8 0.0
0.1 0.8500000000000001 0.0
0.1 0.9 0.0
0.1 0.9500000000000001 0.0
0.1 1 0.0
0.15 0 0.0
0.15 0.05 0.0
0.15 0.1 0.0
0.15 0.15 0.0
0.15 0.2 0.0
0.15 0.25 0.0
0.15 0.3 0.0
0.15 0.35 0.0
0.15 0.4 0.0
0.15 0.45 0.0
0.15 0.5 0.0
0.15 0.55 0.0
0.15 0.6000000000000001 0.0
0.15 0.65 0.0
0.15 0.7000000000000001 0.0
0.15 0.75 0.0
0.15 0.8 0.0
0.15 0.8500000000000001 0.0
0.15 0.9 0.0
0.15 0.9500000000000001 0.0
0.15 1 0.0
0.2 0 0.0
0.2 0.05 0.0
0.2 0.1 0.0
0.2 0.15 0.0
0.2 0.2 0.0
0.2 0.25 0.0
0.2 0.3 0.0
0.2 0.35 0.0
0.2 0.4 0.0
0.2 0.45 0.0
0.2 0.5 0.0
0.2 0.55 0.0
0.2 0.6000000000000001 0.0
0.2 0.65 0.0
0.2 0.7000000000000001 0.0
0.2 0.75 0.0
0.2 0.8 0.0
0.2 0.8500000000000001 0.0
0.2 0.9 0.0
0.2 0.9500000000000001 0.0
0.2 1 0.0
0.25 0 0.0
0.25 0.05 0.0
0.25 0.1 0.0
0.25 0.15 0.0
0.25 0.2 0.0
0.25 0.25 0.0
0.25 0.3 0.0
0.25 0.35 0.0
0.25 0.4 0.0
0.25 0.45 0.0
0.25 0.5 0.0
0.25 0.55 0.0
0.25 0.6000000000000001 0.0
0.25 0.65 0.0
0.25 0.7000000000000001 0.0
0.25 0.75 0.0
0.25 0.8 0.0
0.25 0.8500000000000001 0.0
0.25 0.9 0.0
0.25 0.9500000000000001 0.0
0.25 1 0.0
0.3 0 0.0
0.3 0.05 0.0
0.3 0.1 0.0
0.3 0.15 0.0
0.3 0.2 0.0
0.3 0.25 0.0
0.3 0.3 0.0
0.3 0.35 0.0
0.3 0.4 0.0
0.3 0.45 0.0
0.3 0.5 0.0
0.3 0.55 0.0
0.3 0.6000000000000001 0.0
0.3 0.65 0.0
0.3 0.7000000000000001 0.0
0.3 0.75 0.0
0.3 0.8 0.0
0.3 0.8500000000000001 0.0
0.3 0.9 0.0
0.3 0.9500000000000001 0.0
0.3 1 0.0
0.35 0 0.0
0.35 0.05 0.0
0.35 0.1 0.0
0.35 0.15 0.0
0.35 0.2 0.0
0.35 0.25 0.0
0.35 0.3 0.0
0.35 0.35 0.0
0.35 0.4 0.0
0.35 0.45 0.0
0.35 0.5 0.0
0.35 0.55 0.0
0.35 0.6000000000000001 0.0
0.35 0.65 0.0
0.35 0.7000000000000001 0.0
0.35 0.75 0.0
0.35 0.8 0.0
0.35 0.8500000000000001 0.0
0.35 0.9 0.0
0.35 0.9500000000000001 0.0
0.35 1 0.0
0.4 0 0.0
0.4 0.05 0.0
0.4 0.1 0.0
0.4 0.15 0.0
0.4 0.2 0.0
0.4 0.25 0.0
0.4 0.3 0.0
0.4 0.35 0.0
0.4 0.4 0.0
0.4 0.45 0.0
0.4 0.5 0.0
0.4 0.55 0.0
0.4 0.6000000000000001 0.0
0.4 0.65 0.0
0.4 0.7000000000000001 0.0
0.4 0.75 0.0
0.4 0.8 0.0
0.4 0.8500000000000001 0.0
0.4 0.9 0.0
0.4 0.9500000000000001 0.0
0.4 1 0.0
0.45 0 0.0
0.45 0.05 0.0
0.45 0.1 0.0
0.45 0.15 0.0
0.45 0.2 0.0
0.45 0.25 0.0
0.45 0.3 0.0
0.45 0.35 0.0
0.45 0.4 0.0
0.45 0.45 0.0
0.45 0.5 0.0
0.45 0.55 0.0
0.45 0.6000000000000001 0.0
0.45 0.65 0.0
0.45 0.7000000000000001 0.0
0.45 0.75 0.0
0.45 0.8 0.0
0.45 0.8500000000000001 0.0
0.45 0.9 0.0
0.45 0.9500000000000001 0.0
0.45 1 0.0
0.5 0 0.0
0.5 0.05 0.0
0.5 0.1 0.0
0.5 0.15 0.0
0.5 0.2 0.0
0.5 0.25 0.0
0.5 0.3 0.0
0.5 0.35 0.0
0.5 0.4 0.0
0.5 0.45 0.0
0.5 0.5 0.0
0.5 0.55 0.0
0.5 0.6000000000000001 0.0
0.5 0.65 0.0
0.5 0.7000000000000001 0.0
0.5 0.75 0.0
0.5 0.8 0.0
0.5 0.8500000000000001 0.0
0.5 0.9 0.0
0.5 0.9500000000000001 0.0
0.5 1 0.0
0.55 0 0.0
0.55 0.05 0.0
0.55 0.1 0.0
0.55 0.15 0.0
0.55 0.2 0.0
0.55 0.25 0.0
0.55 0.3 0.0
0.55 0.35 0.0
0.55 0.4 0.0
0.55 0.45 0.0
0.55 0.5 0.0
0.55 0.55 0.0
0.55 0.6000000000000001 0.0
0.55 0.65 0.0
0.55 0.7000000000000001 0.0
0.55 0.75 0.0
0.55 0.8 0.0
0.55 0.8500000000000001 0.0
0.55 0.9 0.0
0.55 0.9500000000000001 0.0
0.55 1 0.0
0.6000000000000001 0 0.0
0.6000000000000001 0.05 0.0
0.6000000000000001 0.1 0.0
0.6000000000000001 0.15 0.0
0.6000000000000001 0.2 0.0
0.6000000000000001 0.25 0.0
0.6000000000000001 0.3 0.0
0.6000000000000001 0.35 0.0
0.6000000000000001 0.4 0.0
0.6000000000000001 0.45 0.0
0.6000000000000001 0.5 0.0
0.6000000000000001 0.55 0.0
0.6000000000000001 0.6000000000000001 0.0
0.6000000000000001 0.65 0.0
0.6000000000000001 0.7000000000000001 0.0
0.6000000000000001 0.75 0.0
0.6000000000000001 0.8 0.0
0.6000000000000001 0.8500000000000001 0.0
0.6000000000000001 0.9 0.0
0.6000000000000001 0.9500000000000001 0.0
0.6000000000000001 1 0.0
0.65 0 0.0
0.65 0.05 0.0
0.65 0.1 0.0
0.65 0.15 0.0
0.65 0.2 0.0
0.65 0.25 0.0
0.65 0.3 0.0
0.65 0.35 0.0
0.65 0.4 0.0
0.65 0.45 0.0
0.65 0.5 0.0
0.65 0.55 0.0
0.65 0.6000000000000001 0.0
0.65 0.65 0.0
0.65 0.7000000000000001 0.0
0.65 0.75 0.0
0.65 0.8 0.0
0.65 0.8500000000000001 0.0
0.65 0.9 0.0
0.65 0.9500000000000001 0.0
0.65 1 0.0
0.7000000000000001 0 0.0
0.7000000000000001 0.05 0.0
0.7000000000000001 0.1 0.0
0.7000000000000001 0.15 0.0
0.7000000000000001 0.2 0.0
0.7000000000000001 0.25 0.0
0.7000000000000001 0.3 0.0
0.7000000000000001 0.35 0.0
0.7000000000000001 0.4 0.0
0.7000000000000001 0.45 0.0
0.7000000000000001 0.5 0.0
0.7000000000000001 0.55 0.0
0.7000000000000001 0.6000000000000001 0.0
0.7000000000000001 0.65 0.0
0.7000000000000001 0.7000000000000001 0.0
0.7000000000000001 0.75 0.0
0.7000000000000001 0.8 0.0
0.7000000000000001 0.8500000000000001 0.0
0.7000000000000001 0.9 0.0
0.7000000000000001 0.9500000000000001 0.0
0.7000000000000001 1 0.0
0.75 0 0.0
0.75 0.05 0.0
0.75 0.1 0.0
0.75 0.15 0.0
0.75 0.2 0.0
0.75 0.25 0.0
0.75 0.3 0.0
0.75 0.35 0.0
0.75 0.4 0.0
0.75 0.45 0.0
0.75 0.5 0.0
0.75 0.55 0.0
0.75 0.6000000000000001 0.0
0.75 0.65 0.0
0.75 0.7000000000000001 0.0
0.75 0.75 0.0
0.75 0.8 0.0
0.75 0.8500000000000001 0.0
0.75 0.9 0.0
0.75 0.9500000000000001 0.0
0.75 1 0.0
0.8 0 0.0
0.8 0.05 0.0
0.8 0.1 0.0
0.8 0.15 0.0
0.8 0.2 0.0
0.8 0.25 0.0
0.8 0.3 0.0
0.8 0.35 0.0
0.8 0.4 0.0
0.8 0.45 0.0
0.8 0.5 0.0
0.8 0.55 0.0
0.8 0.6000000000000001 0.0
0.8 0.65 0.0
0.8 0.7000000000000001 0.0
0.8 0.75 0.0
0.8 0.8 0.0
0.8 0.8500000000000001 0.0
0.8 0.9 0.0
0.8 0.9500000000000001 0.0
0.8 1 0.0
0.8500000000000001 0 0.0
0.8500000000000001 0.05 0.0
0.8500000000000001 0.1 0.0
0.8500000000000001 0.15 0.0
0.8500000000000001 0.2 0.0
0.8500000000000001 0.25 0.0
0.8500000000000001 0.3 0.0
0.8500000000000001 0.35 0.0
0.8500000000000001 0.4 0.0
0.8500000000000001 0.45 0.0
0.8500000000000001 0.5 0.0
0.8500000000000001 0.55 0.0
0.8500000000000001 0.6000000000000001 0.0
0.8500000000000001 0.65 0.0
0.8500000000000001 0.7000000000000001 0.0
0.8500000000000001 0.75 0.0
0.8500000000000001 0.8 0.0
0.8500000000000001 0.8500000000000001 0.0
0.8500000000000001 0.9 0.0
0.8500000000000001 0.9500000000000001 0.0
0.8500000000000001 1 0.0
0.9 0 0.0
0.9 0.05 0.0
0.9 0.1 0.0
0.9 0.15 0.0
0.9 0.2 0.0
0.9 0.25 0.0
0.9 0.3 0.0
0.9 0.35 0.0
0.9 0.4 0.0
0.9 0.45 0.0
0.9 0.5 0.0
0.9 0.55 0.0
0.9 0.6000000000000001 0.0
0.9 0.65 0.0
0.9 0.7000000000000001 0.0
0.9 0.75 0.0
0.9 0.8 0.0
0.9 0.8500000000000001 0.0
0.9 0.9 0.0
0.9 0.9500000000000001 0.0
0.9 1 0.0
0.9500000000000001 0 0.0
0.9500000000000001 0.05 0.0
0.9500000000000001 0.1 0.0
0.9500000000000001 0.15 0.0
0.9500000000000001 0.2 0.0
0.9500000000000001 0.25 0.0
0.9500000000000001 0.3 0.0
0.9500000000000001 0.35 0.0
0.9500000000000001 0.4 0.0
0.9500000000000001 0.45 0.0
0.9500000000000001 0.5 0.0
0.9500000000000001 0.55 0.0
0.9500000000000001 0.6000000000000001 0.0
0.9500000000000001 0.65 0.0
0.9500000000000001 0.7000000000000001 0.0
0.9500000000000001 0.75 0.0
0.9500000000000001 0.8 0.0
0.9500000000000001 0.8500000000000001 0.0
0.9500000000000001 0.9 0.0
0.9500000000000001 0.9500000000000001 0.0
0.9500000000000001 1 0.0
1 0 0.0
1 0.05 0.0
1 0.1 0.0
1 0.15 0.0
1 0.2 0.0
1 0.25 0.0
1 0.3 0.0
1 0.35 0.0
1 0.4 0.0
1 0.45 0.0
1 0.5 0.0
1 0.55 0.0
1 0.6000000000000001 0.0
1 0.65 0.0
1 0.7000000000000001 0.0
1 0.75 0.0
1 0.8 0.0
1 0.8500000000000001 0.0
1 0.9 0.0
1 0.9500000000000001 0.0
1 1 0.0
1.05 0 0.0
1.05 0.05 0.0
1.05 0.1 0.0
1.05 0.15 0.0
1.05 0.2 0.0
1.05 0.25 0.0
1.05 0.3 0.0
1.05 0.35 0.0
1.05 0.4 0.0
1.05 0.45 0.0
1.05 0.5 0.0
1.05 0.55 0.0
1.05 0.6000000000000001 0.0
1.05 0.65 0.0
1.05 0.7000000000000001 0.0
1.05 0.75 0.0
1.05 0.8 0.0
1.05 0.8500000000000001 0.0
1.05 0.9 0.0
1.05 0.9500000000000001 0.0
1.05 1 0.0
1.1 0 0.0
1.1 0.05 0.0
1.1 0.1 0.0
1.1 0.15 0.0
1.1 0.2 0.0
1.1 0.25 0.0
1.1 0.3 0.0
1.1 0.35 0.0
1.1 0.4 0.0
1.1 0.45 0.0
1.1 0.5 0.0
1.1 0.55 0.0
1.1 0.6000000000000001 0.0
1.1 0.65 0.0
1.1 0.7000000000000001 0.0
1.1 0.75 0.0
1.1 0.8 0.0
1.1 0.8500000000000001 0.0
1.1 0.9 0.0
1.1 0.9500000000000001 0.0
1.1 1 0.0
1.15 0 0.0
1.15 0.05 0.0
1.15 0.1 0.0
1.15 0.15 0.0
1.15 0.2 0.0
1.15 0.25 0.0
1.15 0.3 0.0
1.15 0.35 0.0
1.15 0.4 0.0
1.15 0.45 0.0
1.15 0.5 0.0
1.15 0.55 0.0
1.15 0.6000000000000001 0.0
1.15 0.65 0.0
1.15 0.7000000000000001 0.0
1.15 0.75 0.0
1.15 0.8 0.0
1.15 0.8500000000000001 0.0
1.15 0.9 0.0
1.15 0.9500000000000001 0.0
1.15 1 0.0
1.2 0 0.0
1.2 0.05 0.0
1.2 0.1 0.0
1.2 0.15 0.0
1.2 0.2 0.0
1.2 0.25 0.0
1.2 0.3 0.0
1.2 0.35 0.0
1.2 0.4 0.0
1.2 0.45 0.0
1.2 0.5 0.0
1.2 0.55 0.0
1.2 0.6000000000000001 0.0
1.2 0.65 0.0
1.2 0.7000000000000001 0.0
1.2 0.75 0.0
1.2 0.8 0.0
1.2 0.8500000000000001 0.0
1.2 0.9 0.0
1.2 0.9500000000000001 0.0
1.2 1 0.0
1.25 0 0.0
1.25 0.05 0.0
1.25 0.1 0.0
1.25 0.15 0.0
1.25 0.2 0.0
1.25 0.25 0.0
1.25 0.3 0.0
1.25 0.35 0.0
1.25 0.4 0.0
1.25 0.45 0.0
1.25 0.5 0.0
1.25 0.55 0.0
1.25 0.6000000000000001 0.0
1.25 0.65 0.0
1.25 0.7000000000000001 0.0
1.25 0.75 0.0
1.25 0.8 0.0
1.25 0.8500000000000001 0.0
1.25 0.9 0.0
1.25 0.9500000000000001 0.0
1.25 1 0.0
1.3 0 0.0
1.3 0.05 0.0
1.3 0.1 0.0
1.3 0.15 0.0
1.3 0.2 0.0
1.3 0.25 0.0
1.3 0.3 0.0
1.3 0.35 0.0
1.3 0.4 0.0
1.3 0.45 0.0
1.3 0.5 0.0
1.3 0.55 0.0
1.3 0.6000000000000001 0.0
1.3 0.65 0.0
1.3 0.7000000000000001 0.0
1.3 0.75 0.0
1.3 0.8 0.0
1.3 0.8500000000000001 0.0
1.3 0.9 0.0
[...]
POINT_DATA 861
SCALARS v_0 float
LOOKUP_TABLE default
0.608202
-0.320566
-0.524569
0.347627
-1.09759
-0.635231
-0.717404
0.34283
0.775505
1.10149
0.562693
0.601955
-0.967688
-1.55835
-2.03649
-1.64297
-0.65491
-0.597519
-0.816749
-0.356642
-0.0751916
0.539466
-0.498485
-0.86192
-0.262079
-0.633481
-0.433382
0.635581
0.648196
0.390448
0.25602
0.184569
-0.960799
-0.948146
-0.694774
-0.745661
-0.570454
-0.539068
-0.218991
-0.212661
0.0250708
-0.227048
-0.0617608
-0.765109
-0.591764
0.561783
-0.247195
0.908706
0.828568
1.06932
0.935315
-0.00359109
-0.141804
-1.36724
-0.688723
-0.254745
0.594226
-0.365968
-0.0787099
-0.141429
0.80146
-0.160514
-0.338426
0.571144
-0.435813
-0.914032
-0.0530468
-0.214162
0.902032
1.11985
0.738012
0.929098
1.17225
0.737386
-0.437402
-1.21513
0.765513
0.999185
0.172778
-0.219211
-0.435132
0.334045
0.487965
-0.344392
0.204505
0.321755
-0.249952
-0.601263
-1.09288
-0.302494
0.592868
1.2254
1.39983
1.11558
0.267979
0.535693
-0.0434517
1.13151
2.03946
0.493594
-0.702884
-1.05344
-0.180513
-1.56104
-0.911871
-0.548086
0.314299
-0.480788
-0.548116
-0.134903
0.122187
0.273252
0.585
1.09544
0.828065
2.12798
1.72791
1.44625
1.71851
0.711395
-0.947558
-0.636743
-1.18769
-1.41266
-1.16922
-1.28631
0.817196
0.45832
0.901056
-0.00588405
-0.306196
-0.216744
-1.0028
-0.341607
0.290397
-0.0143741
0.748793
1.31487
1.7671
0.533397
-0.0662842
-0.0134798
-0.813168
-2.04187
-1.9198
-1.15962
-1.09666
1.1364
0.748826
0.881094
0.320428
-0.122075
-0.341944
-0.812928
-0.596481
-0.177481
-0.101611
0.585362
0.971597
1.15289
0.593247
0.00516957
0.461246
0.116549
-0.73804
-1.52549
-1.27909
-1.79452
1.58798
1.57957
0.836004
0.728662
-0.114988
-1.04092
-1.08691
-1.51592
-0.489698
-0.0206394
0.280257
0.893954
0.499948
-0.225344
-0.489389
-0.139727
0.0866537
-0.192585
-1.62024
-1.84682
-1.29781
0.474903
0.851556
0.377187
0.0631503
0.737594
0.268277
-1.31035
-1.5981
-1.0173
-0.156642
-0.292277
0.565054
-0.215251
-0.852178
-0.0683849
0.0146182
0.162694
-0.0875634
-1.30976
-1.77767
-1.46185
-0.232534
-0.485625
0.600398
0.0654717
-0.645892
-0.0354904
0.805963
0.499861
-0.994042
-1.04728
-0.107882
-0.275723
-0.399214
-0.73179
-0.494287
-0.632002
-1.61871
-1.08269
-1.25977
-1.11748
-1.08626
-0.757029
-0.748169
0.0847967
-0.294371
-1.44621
-0.691019
0.257402
-0.0227277
0.0688432
-0.433999
-0.117656
-0.589817
-1.43488
-1.34464
-1.17817
-1.15912
-1.06079
-0.750318
-0.455775
0.0653315
-0.0361732
0.183436
0.0558322
0.848131
0.424333
-0.897371
-0.915681
-0.649308
0.426026
-1.01178
-0.433236
-0.963296
-1.55295
-1.46632
-1.0579
-1.63294
-1.26095
-0.64991
-0.48015
-0.156195
-0.0349596
-0.651165
-0.343815
-0.773601
0.481196
-0.0713331
-1.02435
-1.64387
0.0267672
0.291049
0.214364
-0.0271892
-0.92586
-0.931125
-0.752591
-0.611662
-0.722134
-1.00011
0.0969735
-0.26797
0.111167
0.669232
-0.152608
-1.2572
-0.14527
-0.301372
-0.545312
-1.03552
-1.36412
0.386899
0.886063
1.14558
0.0685045
-0.385693
0.422881
0.139252
-0.816383
-1.22725
-0.956047
-0.756751
-0.657058
0.11963
-0.0452343
-0.389572
-0.785221
-0.535909
-0.076095
-0.757806
-0.469209
-0.138887
-0.785251
-0.14726
0.0192456
0.0165339
0.300036
0.689581
0.594295
-0.851399
-0.560967
-0.187486
-0.382426
-0.111494
-0.944824
-0.344015
-0.0213979
-0.892827
-0.833329
0.134035
0.592537
1.06106
0.517953
0.0488557
0.0366912
0.33169
0.0525845
0.583523
-0.523908
0.0520277
0.0971486
-0.403811
-0.391501
-0.913704
-0.607071
-1.23396
-0.668547
0.0681248
-0.802541
-0.674058
0.149733
-0.133323
1.04652
0.939779
0.409293
0.457001
0.801667
1.34382
0.291523
0.817267
0.56633
0.0863886
0.0264392
-0.137739
-0.429985
0.0930616
-0.647918
-0.544619
0.333945
-0.810248
-1.00178
-0.0611814
-0.614651
0.563717
1.26139
0.471988
1.38686
1.39602
1.47569
1.21058
1.75065
1.05667
0.346001
0.260781
0.722726
0.27278
0.254799
-0.138712
-0.3222
1.17912
-0.27977
-0.650375
-0.556828
-0.922805
-0.760608
0.361835
0.984263
1.13182
1.67379
1.90465
2.0393
1.95534
1.11734
1.62431
1.15019
0.951838
0.273704
0.518186
0.838023
0.311413
1.59596
-0.450186
-0.422937
0.111405
-0.352383
0.776919
1.21665
1.80033
2.25551
1.85972
1.63047
1.84694
1.5477
1.6024
1.39479
0.740325
1.31993
0.991948
0.516563
0.0825264
0.13631
1.26739
0.0832989
0.677916
0.276279
-0.690879
0.608626
1.1478
0.982822
1.19231
1.68119
2.38854
1.26434
0.879421
0.707507
2.1986
0.722169
0.969505
1.39669
0.743983
0.188499
-0.00651682
0.47964
0.277941
-0.246759
-0.282815
-0.875694
-0.178721
0.923414
0.38438
0.478025
0.914382
1.1782
2.16904
0.374994
0.130611
0.700917
1.45573
0.552001
1.15295
1.12439
0.537041
0.746903
0.580588
-0.700375
-1.1629
-0.155262
-0.607223
0.477567
0.963514
0.516836
0.150693
0.740788
1.63541
0.302336
0.557525
0.935003
1.1229
-0.31752
0.0202373
0.972704
1.02506
-0.0090369
0.41443
0.318666
-1.36342
-0.369275
-0.575024
-0.208599
-0.254271
0.0787819
0.33615
0.886557
0.857841
0.694466
0.889575
0.753195
0.488344
0.820196
0.546056
0.169283
0.642891
0.154203
0.839976
0.960643
1.07652
-0.75669
-0.332762
-0.476812
-0.860303
-0.250806
-0.0414693
0.247993
1.37543
1.76736
0.683065
0.0234512
0.100954
0.85045
0.104838
1.606
0.960858
0.467957
0.307545
0.414101
0.891468
1.25916
-0.862675
-0.178346
-0.0958681
-0.134116
-0.84098
-0.315766
0.891272
1.08033
0.598021
0.815122
0.615459
-0.327578
0.0687147
0.872703
1.46332
1.04937
0.416547
0.184423
-0.248465
0.424492
0.552882
-0.0539446
-1.13901
-0.996119
-0.0314279
-0.308845
0.965237
0.859529
0.861941
0.438082
0.57303
-0.65639
0.169812
-0.473254
0.724763
1.395
0.349532
0.610241
0.959748
0.408721
-0.773717
0.0076928
0.150334
-0.0608612
0.170032
-0.0478433
-0.39596
0.876704
0.992251
1.19992
0.851393
0.968849
1.01004
1.47975
1.19641
0.698874
0.858621
0.701331
0.870525
0.85424
0.632892
-0.155912
0.544597
0.58368
-0.985628
0.281909
0.219945
1.17149
0.979467
1.7126
1.06176
0.423105
0.426925
1.25204
1.45308
0.375278
0.522271
0.625665
0.723394
0.254832
0.226968
0.642645
-0.108306
-0.402056
0.268938
0.344705
-0.288871
-0.0857954
1.46765
1.04514
2.12271
1.20802
0.418343
0.207801
1.36212
1.34705
0.949094
1.32251
-0.0391119
0.760191
0.658062
-0.319325
0.104352
0.222042
0.453855
0.0179432
-0.726333
-0.346602
-0.377712
-0.323812
0.308742
0.700085
0.449029
0.149167
0.767582
1.25723
0.983983
0.612567
0.844654
1.35143
0.778536
0.570209
-0.0496632
0.173208
-0.386521
-0.331682
-0.676717
-1.18912
-0.592751
1.09497
0.190941
0.970657
-0.162498
0.372906
1.03867
1.65564
1.90224
2.04285
1.81049
1.51699
1.48002
0.927234
0.9257
-0.187808
-1.07954
-0.575244
-0.258373
-0.661568
0.413526
0.757286
0.980285
0.74692
0.304454
0.708695
0.0788774
-0.11981
1.01376
1.0438
2.3839
2.12824
1.76205
1.32158
1.62771
0.761274
0.0048012
-0.516193
-0.488438
-0.415058
-0.049352
-0.208989
0.791864
0.144486
-0.466539
0.051303
0.618982
0.412581
0.493058
1.14536
1.20755
1.19605
1.18689
1.2458
1.11696
0.543706
0.136768
-0.623407
-0.974628
-0.74712
-1.47819
-0.927234
0.545733
0.834487
-0.107521
-0.406779
-1.61023
-0.635743
-0.179012
-0.145041
0.0895894
0.734481
-0.174563
0.405879
0.257563
0.0208041
-0.246733
-0.372219
-1.40794
-1.80662
-1.46439
-0.607898
-0.27737
0.857043
0.406352
-0.439431
-0.380383
-0.362522
-0.595489
-0.394458
-0.602252
-1.18266
-0.575766
-0.927354
0.159223
0.405473
-0.87703
-1.06413
-1.03901
-1.18596
-1.25126
-1.04835
-1.68214
-0.263938
-0.0790947
0.641749
-0.537403
-0.906528
-1.33286
-0.923507
-0.0850387
-0.376154
-1.33203
-0.90358
-1.4014
-0.18021
0.446644
0.634517
-0.435092
-1.07919
-0.477908
-0.355171
-0.658216
-0.891043
-0.276203
0.0804308
0.383214
0.402597
0.536111
-0.734341
-0.891327
-0.216229
-0.294791
-1.36534
-0.685325
-0.870531
-0.146832
0.999346
0.0455067
0.357942
-1.07808
-0.399038
-0.169047
-0.588243
-0.927617
1.50944
1.72994
1.02636
0.57564
0.428531
-0.0228709
-0.654022
0.136111
0.472882
-0.367423
-1.25045
-1.11938
-0.595371
0.0184984
0.146713
0.64302
0.311832
-0.0774181
-0.888342
-0.821803
-0.995424
0.22907
0.918939
0.169314
0.238512
0.0167344
-0.491398
-0.165346
0.638304
0.291781
-0.740967
-0.990761
-0.653939
-0.388122
-0.948364
-0.0382398
0.752538
0.507442
0.369663
-0.398445
-0.731234
-0.437551
