# vtk DataFile Version 3.0
Unnamed
ASCII

DATASET UNSTRUCTURED_GRID
POINTS 3321 float
0 0 0.0
0 0.025 0.0
0 0.05 0.0
0 0.07500000000000001 0.0
0 0.1 0.0
0 0.125 0.0
0 0.15 0.0
0 0.175 0.0
0 0.2 0.0
0 0.225 0.0
0 0.25 0.0
0 0.275 0.0
0 0.3 0.0
0 0.325 0.0
0 0.35 0.0
0 0.375 0.0
0 0.4 0.0
0 0.425 0.0
0 0.45 0.0
0 0.475 0.0
0 0.5 0.0
0 0.525 0.0
0 0.55 0.0
0 0.5750000000000001 0.0
0 0.6000000000000001 0.0
0 0.625 0.0
0 0.65 0.0
0 0.675 0.0
0 0.7000000000000001 0.0
0 0.7250000000000001 0.0
0 0.75 0.0
0 0.775 0.0
0 0.8 0.0
0 0.8250000000000001 0.0
0 0.8500000000000001 0.0
0 0.875 0.0
0 0.9 0.0
0 0.925 0.0
0 0.9500000000000001 0.0
0 0.9750000000000001 0.0
0 1 0.0
0.025 0 0.0
0.025 0.025 0.0
0.025 0.05 0.0
0.025 0.07500000000000001 0.0
0.025 0.1 0.0
0.025 0.125 0.0
0.025 0.15 0.0
0.025 0.175 0.0
0.025 0.2 0.0
0.025 0.225 0.0
0.025 0.25 0.0
0.025 0.275 0.0
0.025 0.3 0.0
0.025 0.325 0.0
0.025 0.35 0.0
0.025 0.375 0.0
0.025 0.4 0.0
0.025 0.425 0.0
0.025 0.45 0.0
0.025 0.475 0.0
0.025 0.5 0.0
0.025 0.525 0.0
0.025 0.55 0.0
0.025 0.5750000000000001 0.0
0.025 0.6000000000000001 0.0
0.025 0.625 0.0
0.025 0.65 0.0
0.025 0.675 0.0
0.025 0.7000000000000001 0.0
0.025 0.7250000000000001 0.0
0.025 0.75 0.0
0.025 0.775 0.0
0.025 0.8 0.0
0.025 0.8250000000000001 0.0
0.025 0.8500000000000001 0.0
0.025 0.875 0.0
0.025 0.9 0.0
0.025 0.925 0.0
0.025 0.9500000000000001 0.0
0.025 0.9750000000000001 0.0
0.025 1 0.0
0.05 0 0.0
0.05 0.025 0.0
0.05 0.05 0.0
0.05 0.07500000000000001 0.0
0.05 0.1 0.0
0.05 0.125 0.0
0.05 0.15 0.0
0.05 0.175 0.0
0.05 0.2 0.0
0.05 0.225 0.0
0.05 0.25 0.0
0.05 0.275 0.0
0.05 0.3 0.0
0.05 0.325 0.0
0.05 0.35 0.0
0.05 0.375 0.0
0.05 0.4 0.0
0.05 0.425 0.0
0.05 0.45 0.0
0.05 0.475 0.0
0.05 0.5 0.0
0.05 0.525 0.0
0.05 0.55 0.0
0.05 0.5750000000000001 0.0
0.05 0.6000000000000001 0.0
0.05 0.625 0.0
0.05 0.65 0.0
0.05 0.675 0.0
0.05 0.7000000000000001 0.0
0.05 0.7250000000000001 0.0
0.05 0.75 0.0
0.05 0.775 0.0
0.05 0.8 0.0
0.05 0.8250000000000001 0.0
0.05 0.8500000000000001 0.0
0.05 0.875 0.0
0.05 0.9 0.0
0.05 0.925 0.0
0.05 0.9500000000000001 0.0
0.05 0.9750000000000001 0.0
0.05 1 0.0
0.07500000000000001 0 0.0
0.07500000000000001 0.025 0.0
0.07500000000000001 0.05 0.0
0.07500000000000001 0.07500000000000001 0.0
0.07500000000000001 0.1 0.0
0.07500000000000001 0.125 0.0
0.07500000000000001 0.15 0.0
0.07500000000000001 0.175 0.0
0.07500000000000001 0.2 0.0
0.07500000000000001 0.225 0.0
0.07500000000000001 0.25 0.0
0.07500000000000001 0.275 0.0
0.07500000000000001 0.3 0.0
0.07500000000000001 0.325 0.0
0.07500000000000001 0.35 0.0
0.07500000000000001 0.375 0.0
0.07500000000000001 0.4 0.0
0.07500000000000001 0.425 0.0
0.07500000000000001 0.45 0.0
0.07500000000000001 0.475 0.0
0.07500000000000001 0.5 0.0
0.07500000000000001 0.525 0.0
0.07500000000000001 0.55 0.0
0.07500000000000001 0.5750000000000001 0.0
0.07500000000000001 0.6000000000000001 0.0
0.07500000000000001 0.625 0.0
0.07500000000000001 0.65 0.0
0.07500000000000001 0.675 0.0
0.07500000000000001 0.7000000000000001 0.0
0.07500000000000001 0.7250000000000001 0.0
0.07500000000000001 0.75 0.0
0.07500000000000001 0.775 0.0
0.07500000000000001 0.8 0.0
0.07500000000000001 0.8250000000000001 0.0
0.07500000000000001 0.8500000000000001 0.0
0.07500000000000001 0.875 0.0
0.07500000000000001 0.9 0.0
0.07500000000000001 0.925 0.0
0.07500000000000001 0.9500000000000001 0.0
0.07500000000000001 0.9750000000000001 0.0
0.07500000000000001 1 0.0
0.1 0 0.0
0.1 0.025 0.0
0.1 0.05 0.0
0.1 0.07500000000000001 0.0
0.1 0.1 0.0
0.1 0.125 0.0
0.1 0.15 0.0
0.1 0.175 0.0
0.1 0.2 0.0
0.1 0.225 0.0
0.1 0.25 0.0
0.1 0.275 0.0
0.1 0.3 0.0
0.1 0.325 0.0
0.1 0.35 0.0
0.1 0.375 0.0
0.1 0.4 0.0
0.1 0.425 0.0
0.1 0.45 0.0
0.1 0.475 0.0
0.1 0.5 0.0
0.1 0.525 0.0
0.1 0.55 0.0
0.1 0.5750000000000001 0.0
0.1 0.6000000000000001 0.0
0.1 0.625 0.0
0.1 0.65 0.0
0.1 0.675 0.0
0.1 0.7000000000000001 0.0
0.1 0.7250000000000001 0.0
0.1 0.75 0.0
0.1 0.775 0.0
0.1 0.8 0.0
0.1 0.8250000000000001 0.0
0.1 0.8500000000000001 0.0
0.1 0.875 0.0
0.1 0.9 0.0
0.1 0.925 0.0
0.1 0.9500000000000001 0.0
0.1 0.9750000000000001 0.0
0.1 1 0.0
0.125 0 0.0
0.125 0.025 0.0
0.125 0.05 0.0
0.125 0.07500000000000001 0.0
0.125 0.1 0.0
0.125 0.125 0.0
0.125 0.15 0.0
0.125 0.175 0.0
0.125 0.2 0.0
0.125 0.225 0.0
0.125 0.25 0.0
0.125 0.275 0.0
0.125 0.3 0.0
0.125 0.325 0.0
0.125 0.35 0.0
0.125 0.375 0.0
0.125 0.4 0.0
0.125 0.425 0.0
0.125 0.45 0.0
0.125 0.475 0.0
0.125 0.5 0.0
0.125 0.525 0.0
0.125 0.55 0.0
0.125 0.5750000000000001 0.0
0.125 0.6000000000000001 0.0
0.125 0.625 0.0
0.125 0.65 0.0
0.125 0.675 0.0
0.125 0.7000000000000001 0.0
0.125 0.7250000000000001 0.0
0.125 0.75 0.0
0.125 0.775 0.0
0.125 0.8 0.0
0.125 0.8250000000000001 0.0
0.125 0.8500000000000001 0.0
0.125 0.875 0.0
0.125 0.9 0.0
0.125 0.925 0.0
0.125 0.9500000000000001 0.0
0.125 0.9750000000000001 0.0
0.125 1 0.0
0.15 0 0.0
0.15 0.025 0.0
0.15 0.05 0.0
0.15 0.07500000000000001 0.0
0.15 0.1 0.0
0.15 0.125 0.0
0.15 0.15 0.0
0.15 0.175 0.0
0.15 0.2 0.0
0.15 0.225 0.0
0.15 0.25 0.0
0.15 0.275 0.0
0.15 0.3 0.0
0.15 0.325 0.0
0.15 0.35 0.0
0.15 0.375 0.0
0.15 0.4 0.0
0.15 0.425 0.0
0.15 0.45 0.0
0.15 0.475 0.0
0.15 0.5 0.0
0.15 0.525 0.0
0.15 0.55 0.0
0.15 0.5750000000000001 0.0
0.15 0.6000000000000001 0.0
0.15 0.625 0.0
0.15 0.65 0.0
0.15 0.675 0.0
0.15 0.7000000000000001 0.0
0.15 0.7250000000000001 0.0
0.15 0.75 0.0
0.15 0.775 0.0
0.15 0.8 0.0
0.15 0.8250000000000001 0.0
0.15 0.8500000000000001 0.0
0.15 0.875 0.0
0.15 0.9 0.0
0.15 0.925 0.0
0.15 0.9500000000000001 0.0
0.15 0.9750000000000001 0.0
0.15 1 0.0
0.175 0 0.0
0.175 0.025 0.0
0.175 0.05 0.0
0.175 0.07500000000000001 0.0
0.175 0.1 0.0
0.175 0.125 0.0
0.175 0.15 0.0
0.175 0.175 0.0
0.175 0.2 0.0
0.175 0.225 0.0
0.175 0.25 0.0
0.175 0.275 0.0
0.175 0.3 0.0
0.175 0.325 0.0
0.175 0.35 0.0
0.175 0.375 0.0
0.175 0.4 0.0
0.175 0.425 0.0
0.175 0.45 0.0
0.175 0.475 0.0
0.175 0.5 0.0
0.175 0.525 0.0
0.175 0.55 0.0
0.175 0.5750000000000001 0.0
0.175 0.6000000000000001 0.0
0.175 0.625 0.0
0.175 0.65 0.0
0.175 0.675 0.0
0.175 0.7000000000000001 0.0
0.175 0.7250000000000001 0.0
0.175 0.75 0.0
0.175 0.775 0.0
0.175 0.8 0.0
0.175 0.8250000000000001 0.0
0.175 0.8500000000000001 0.0
0.175 0.875 0.0
0.175 0.9 0.0
0.175 0.925 0.0
0.175 0.9500000000000001 0.0
0.175 0.9750000000000001 0.0
0.175 1 0.0
0.2 0 0.0
0.2 0.025 0.0
0.2 0.05 0.0
0.2 0.07500000000000001 0.0
0.2 0.1 0.0
0.2 0.125 0.0
0.2 0.15 0.0
0.2 0.175 0.0
0.2 0.2 0.0
0.2 0.225 0.0
0.2 0.25 0.0
0.2 0.275 0.0
0.2 0.3 0.0
0.2 0.325 0.0
0.2 0.35 0.0
0.2 0.375 0.0
0.2 0.4 0.0
0.2 0.425 0.0
0.2 0.45 0.0
0.2 0.475 0.0
0.2 0.5 0.0
0.2 0.525 0.0
0.2 0.55 0.0
0.2 0.5750000000000001 0.0
0.2 0.6000000000000001 0.0
0.2 0.625 0.0
0.2 0.65 0.0
0.2 0.675 0.0
0.2 0.7000000000000001 0.0
0.2 0.7250000000000001 0.0
0.2 0.75 0.0
0.2 0.775 0.0
0.2 0.8 0.0
0.2 0.8250000000000001 0.0
0.2 0.8500000000000001 0.0
0.2 0.875 0.0
0.2 0.9 0.0
0.2 0.925 0.0
0.2 0.9500000000000001 0.0
0.2 0.9750000000000001 0.0
0.2 1 0.0
0.225 0 0.0
0.225 0.025 0.0
0.225 0.05 0.0
0.225 0.07500000000000001 0.0
0.225 0.1 0.0
0.225 0.125 0.0
0.225 0.15 0.0
0.225 0.175 0.0
0.225 0.2 0.0
0.225 0.225 0.0
0.225 0.25 0.0
0.225 0.275 0.0
0.225 0.3 0.0
0.225 0.325 0.0
0.225 0.35 0.0
0.225 0.375 0.0
0.225 0.4 0.0
0.225 0.425 0.0
0.225 0.45 0.0
0.225 0.475 0.0
0.225 0.5 0.0
0.225 0.525 0.0
0.225 0.55 0.0
0.225 0.5750000000000001 0.0
0.225 0.6000000000000001 0.0
0.225 0.625 0.0
0.225 0.65 0.0
0.225 0.675 0.0
0.225 0.7000000000000001 0.0
0.225 0.7250000000000001 0.0
0.225 0.75 0.0
0.225 0.775 0.0
0.225 0.8 0.0
0.225 0.8250000000000001 0.0
0.225 0.8500000000000001 0.0
0.225 0.875 0.0
0.225 0.9 0.0
0.225 0.925 0.0
0.225 0.9500000000000001 0.0
0.225 0.9750000000000001 0.0
0.225 1 0.0
0.25 0 0.0
0.25 0.025 0.0
0.25 0.05 0.0
0.25 0.07500000000000001 0.0
0.25 0.1 0.0
0.25 0.125 0.0
0.25 0.15 0.0
0.25 0.175 0.0
0.25 0.2 0.0
0.25 0.225 0.0
0.25 0.25 0.0
0.25 0.275 0.0
0.25 0.3 0.0
0.25 0.325 0.0
0.25 0.35 0.0
0.25 0.375 0.0
0.25 0.4 0.0
0.25 0.425 0.0
0.25 0.45 0.0
0.25 0.475 0.0
0.25 0.5 0.0
0.25 0.525 0.0
0.25 0.55 0.0
0.25 0.5750000000000001 0.0
0.25 0.6000000000000001 0.0
0.25 0.625 0.0
0.25 0.65 0.0
0.25 0.675 0.0
0.25 0.7000000000000001 0.0
0.25 0.7250000000000001 0.0
0.25 0.75 0.0
0.25 0.775 0.0
0.25 0.8 0.0
0.25 0.8250000000000001 0.0
0.25 0.8500000000000001 0.0
0.25 0.875 0.0
0.25 0.9 0.0
0.25 0.925 0.0
0.25 0.9500000000000001 0.0
0.25 0.9750000000000001 0.0
0.25 1 0.0
0.275 0 0.0
0.275 0.025 0.0
0.275 0.05 0.0
0.275 0.07500000000000001 0.0
0.275 0.1 0.0
0.275 0.125 0.0
0.275 0.15 0.0
0.275 0.175 0.0
0.275 0.2 0.0
0.275 0.225 0.0
0.275 0.25 0.0
0.275 0.275 0.0
0.275 0.3 0.0
0.275 0.325 0.0
0.275 0.35 0.0
0.275 0.375 0.0
0.275 0.4 0.0
0.275 0.425 0.0
0.275 0.45 0.0
0.275 0.475 0.0
0.275 0.5 0.0
0.275 0.525 0.0
0.275 0.55 0.0
0.275 0.5750000000000001 0.0
0.275 0.6000000000000001 0.0
0.275 0.625 0.0
0.275 0.65 0.0
0.275 0.675 0.0
0.275 0.7000000000000001 0.0
0.275 0.7250000000000001 0.0
0.275 0.75 0.0
0.275 0.775 0.0
0.275 0.8 0.0
0.275 0.8250000000000001 0.0
0.275 0.8500000000000001 0.0
0.275 0.875 0.0
0.275 0.9 0.0
0.275 0.925 0.0
0.275 0.9500000000000001 0.0
0.275 0.9750000000000001 0.0
0.275 1 0.0
0.3 0 0.0
0.3 0.025 0.0
0.3 0.05 0.0
0.3 0.07500000000000001 0.0
0.3 0.1 0.0
0.3 0.125 0.0
0.3 0.15 0.0
0.3 0.175 0.0
0.3 0.2 0.0
0.3 0.225 0.0
0.3 0.25 0.0
0.3 0.275 0.0
0.3 0.3 0.0
0.3 0.325 0.0
0.3 0.35 0.0
0.3 0.375 0.0
0.3 0.4 0.0
0.3 0.425 0.0
0.3 0.45 0.0
0.3 0.475 0.0
0.3 0.5 0.0
0.3 0.525 0.0
0.3 0.55 0.0
0.3 0.5750000000000001 0.0
0.3 0.6000000000000001 0.0
0.3 0.625 0.0
0.3 0.65 0.0
0.3 0.675 0.0
0.3 0.7000000000000001 0.0
0.3 0.7250000000000001 0.0
0.3 0.75 0.0
0.3 0.775 0.0
0.3 0.8 0.0
0.3 0.8250000000000001 0.0
0.3 0.8500000000000001 0.0
0.3 0.875 0.0
0.3 0.9 0.0
0.3 0.925 0.0
0.3 0.9500000000000001 0.0
0.3 0.9750000000000001 0.0
0.3 1 0.0
0.325 0 0.0
0.325 0.025 0.0
0.325 0.05 0.0
0.325 0.07500000000000001 0.0
0.325 0.1 0.0
0.325 0.125 0.0
0.325 0.15 0.0
0.325 0.175 0.0
0.325 0.2 0.0
0.325 0.225 0.0
0.325 0.25 0.0
0.325 0.275 0.0
[...]
POINT_DATA 3321
SCALARS v_0 float
LOOKUP_TABLE default
0.608202
-0.0587682
-0.257987
0.339286
-0.726527
-0.476526
-0.587499
0.157498
0.520264
0.832167
0.513088
0.57556
-0.569128
-1.10562
-1.59266
-1.44821
-0.809705
-0.780149
-0.951954
-0.630575
-0.404603
-0.1474
-0.618306
-0.948581
-0.614369
-0.601202
-0.365281
0.515916
0.488314
0.063445
-0.28336
-0.363516
-1.16171
-0.836442
-0.0948445
0.388661
0.691756
0.589961
0.774302
0.824391
0.91928
0.14772
-0.162219
-0.458631
-0.188452
0.31111
-0.354829
0.424918
0.445297
0.886262
1.07245
0.453978
0.268811
-0.916944
-0.932386
-1.03364
-0.447629
-0.926321
-0.664321
-0.757681
0.0192836
-0.506954
-0.534524
-0.165547
-0.781016
-1.1581
-0.697838
-0.642606
0.288312
0.418062
-0.0687228
-0.0232232
0.26635
0.0426971
-0.379993
-0.638802
0.879947
1.11285
0.725411
0.545401
0.362059
0.819158
0.405661
-0.237639
-0.3082
0.264021
0.23449
-0.127523
-0.44936
-0.0392192
0.594493
1.03823
0.804369
0.159309
-0.735971
-0.335986
-0.577749
-0.0112272
0.43743
-0.406387
-0.926531
-0.957873
-0.588038
-1.66034
-1.00908
-1.40413
-0.816829
-0.991498
-0.511342
0.309363
0.41996
0.0334428
-0.0618762
0.27089
0.109841
1.04305
0.886197
1.19481
1.36348
0.422823
-0.454996
0.279218
0.263109
-0.086875
0.0134249
-0.203662
0.717079
0.465715
0.71517
-0.018523
-0.170666
0.133843
-0.295159
-0.11083
-0.266162
-1.07
-0.903455
-0.474942
0.211976
-0.364575
-0.638793
-0.427516
-0.941286
-1.75168
-1.84382
-1.30237
-1.2207
-0.726018
-0.757806
-0.233482
0.0965211
0.217128
0.189316
0.0355095
0.221924
0.541058
0.856603
1.23019
1.26287
1.16954
0.571483
0.0393188
0.646989
0.957021
0.238561
-0.103472
0.0380452
-0.138392
0.688453
0.880206
0.220226
0.163225
-0.286187
-0.917367
-0.879283
-1.37142
-1.03715
-0.826412
-0.577747
-0.110975
-0.572308
-1.11303
-1.28011
-1.38243
-1.48019
-1.3869
-1.82138
-1.56177
-0.779935
-1.08517
-0.535803
-0.382341
-0.18783
0.765304
0.893759
0.127952
0.176561
0.556753
1.08362
0.815064
1.15649
0.441947
0.065244
0.906599
1.07843
0.37495
0.319639
-0.138297
-0.217414
0.204227
0.0458084
-0.39577
0.184407
-0.550883
-1.54526
-1.10923
-0.120177
0.0380647
-0.962247
-1.07719
-0.461384
-0.913601
-1.18318
-1.50637
-1.58499
-1.83703
-2.59244
-2.10968
-1.675
-1.01218
-0.853988
-0.922573
-0.72251
0.0154358
0.280462
-0.310795
-0.22638
0.126474
0.272957
1.02729
0.89534
0.988731
0.421432
-0.186518
0.228469
0.549621
0.314002
0.422435
0.355855
0.374715
0.684187
0.424665
0.505955
0.286879
0.340004
-0.20691
-0.75473
-0.510158
-0.588542
-0.311509
-1.5288
-0.994074
-1.44253
-1.86562
-1.7475
-1.57612
-2.30894
-2.38157
-1.92041
-1.6114
-1.19952
-1.07687
-1.40075
-1.27998
-1.23761
-0.278915
-0.552282
-0.743597
-0.771972
0.622472
1.04368
1.31836
1.1774
0.42814
0.351478
0.554496
0.807076
0.595218
0.397453
1.0089
0.66177
0.901866
1.27587
0.76724
0.0588673
0.624065
-0.03651
-0.47149
-0.672196
-0.946114
-0.26821
-0.573892
-0.565443
-1.39742
-1.69034
-1.0634
-1.35089
-2.30361
-2.62892
-2.27164
-2.09454
-1.89402
-1.41033
-1.68633
-1.73321
-1.34816
-0.939398
-0.514893
-0.858493
-0.245215
0.563572
0.109121
0.409232
0.39185
0.375564
0.627319
0.927681
1.1526
0.0839042
0.745084
1.25957
1.11065
1.27479
0.537596
0.671571
0.655493
0.262549
-0.161825
0.0722863
0.219613
0.445394
0.185608
-0.0819388
-0.386581
-0.703614
-1.23661
-1.00589
-2.16921
-2.1439
-2.0629
-2.3289
-2.26608
-2.44413
-1.9688
-2.24741
-1.87619
-1.24229
-1.10962
-0.961765
-0.625135
-0.83184
0.168388
0.255283
0.158493
0.37595
0.769912
1.43878
0.990558
1.73144
0.531946
0.686872
1.16399
1.29657
1.17082
1.35244
0.783333
0.585696
0.717475
0.221333
-0.0691282
0.473869
-0.061206
0.299256
0.437152
-0.351279
-0.0663076
-0.545687
-0.873863
-1.39199
-1.19463
-1.65023
-2.10427
-2.1427
-1.74499
-1.8979
-1.8381
-1.73284
-1.52976
-0.448345
-0.3797
-0.631606
-0.628689
-0.656032
-0.687462
-0.073014
0.536863
0.797898
1.38622
1.63693
1.94957
0.815078
0.721428
1.65022
1.56923
1.43298
1.00059
1.04923
1.20856
0.651879
0.99445
0.461076
0.463083
0.798005
0.577637
1.20149
0.860522
0.750865
0.554541
-0.309216
-0.946216
-1.03817
-1.46496
-1.5553
-1.75424
-2.0048
-1.37673
-1.36904
-1.59234
-1.67661
-1.21345
-0.444375
-0.331706
-0.0573639
-0.525591
-1.23897
-0.280277
0.250849
0.271209
0.690161
1.44109
2.26762
0.30003
0.461858
0.8036
2.1306
1.13944
1.12735
1.51112
1.26711
0.918313
0.663468
0.587103
0.684812
0.353676
0.568068
0.463753
0.65179
1.02428
0.243092
-0.38947
-0.838794
-1.10805
-0.426196
-1.66695
-2.06133
-1.9286
-1.05111
-1.58618
-1.26103
-1.05803
-0.929174
-0.250542
-0.201009
-0.646342
-1.12525
-0.480435
-0.424732
0.495666
0.813592
0.867341
1.11845
1.8363
0.888671
-0.032684
0.875873
1.77571
1.67668
0.413519
0.748841
1.23669
1.03994
0.208185
0.438663
0.364765
-0.0426724
0.687388
0.344778
0.520103
0.170268
-0.158168
-0.36681
-0.257531
-0.582617
-0.885751
-1.0102
-1.42559
-1.65022
-1.06231
-0.889485
-1.04147
-0.767718
-0.931325
0.00635711
0.145059
-0.0110591
-0.339168
-0.125622
-0.0591845
0.0173207
0.697875
0.878501
1.10862
2.05471
1.28549
0.473612
0.331928
0.830319
1.34909
0.393219
1.49316
1.27264
0.777415
0.331299
0.116451
0.236106
0.417656
0.235901
0.554209
0.547601
0.351764
-0.527616
-0.482589
0.0372163
-0.38235
-1.04995
-0.767721
-0.814077
-1.54318
-1.23123
-0.598266
-0.386079
-0.51993
-0.600433
-0.287628
-0.438536
-0.154948
-0.262683
0.191149
-0.612179
-0.428961
0.655452
0.874235
1.94012
1.94487
1.01055
0.522462
0.516217
-0.0589104
0.889301
0.310803
1.08825
1.34658
0.412404
0.537341
0.83573
0.565749
-0.340665
0.111307
0.6033
0.758447
0.700139
-0.0807902
-0.64853
0.00458838
-0.183174
-0.226069
-0.364371
-0.206901
-0.141714
0.27701
0.334762
-0.149353
-0.245587
-0.268066
-0.115475
-0.122662
0.0677097
-0.0948867
0.376107
0.209019
-0.8316
0.553382
1.09008
2.272
2.0721
1.33217
0.575361
-0.0640813
-0.238994
0.413286
0.555206
0.153443
0.540522
0.479646
0.55403
0.251687
0.0445858
0.1587
-0.132511
-0.114297
0.365331
0.682996
-0.269824
-0.617416
0.309214
-0.0642388
0.640654
0.216381
0.00718576
0.0197981
0.817865
0.773056
0.495376
0.681761
-0.347759
0.274278
0.371286
-0.231633
0.10908
0.486374
0.656469
0.0940716
-0.0489235
0.89803
1.24857
0.956724
0.679588
0.201617
-0.279247
-0.354475
0.283807
0.463762
0.116016
-0.0210691
0.301571
0.909654
0.37905
0.204805
-0.0625226
-0.0133363
-0.488618
-0.305971
-0.266342
-0.642708
-0.256874
1.22199
0.695407
1.24066
0.214438
0.461484
0.99132
1.51284
1.61408
1.67473
1.43125
0.846069
0.743486
0.468733
0.523619
0.0307887
-0.294968
0.25679
0.336684
0.26603
1.37233
1.50802
1.25884
0.376217
-0.160963
0.0469785
-0.537228
-0.805409
-0.222643
-0.482093
0.393389
0.510755
0.621705
0.373748
0.642702
0.134579
-0.0925276
-0.306625
-0.354062
-0.424184
-0.292785
-0.295846
0.807466
0.485282
0.172835
0.458745
1.00452
1.38117
1.79537
2.13737
1.8616
1.25395
0.817089
0.712533
0.541077
0.0476705
-0.220197
-0.545276
-0.38037
0.0569413
-0.188651
0.156241
1.49283
1.62706
-0.174262
-0.34608
-1.45469
-1.24606
-1.1363
-1.06589
-0.865859
-0.0663042
-0.434816
0.0759042
-0.01294
-0.0758266
-0.211319
-0.223206
-0.80678
-0.987455
-0.668674
0.124087
0.223932
0.938795
0.53179
0.171867
0.803566
1.5248
1.60757
1.83106
1.68755
0.939943
0.866591
0.354517
0.859387
0.817006
-0.317486
-0.611227
-0.577603
-0.311151
-0.0430526
0.0511878
-0.301743
0.498897
0.825597
0.140276
-0.933648
-1.63528
-2.04971
-1.62349
-0.83585
-0.638619
-0.860855
-0.506705
-0.818934
-0.175162
0.211875
0.615087
-0.0538699
-0.698156
-0.308125
0.0703512
0.346808
0.611811
0.733719
0.794692
0.922112
1.54347
2.32507
1.72975
1.48292
1.52574
1.16127
0.364369
0.725839
0.567837
0.531385
0.497393
-0.55079
-0.0740668
-0.742291
-0.184037
-0.020124
-0.210364
-0.0549658
1.40364
0.499862
-0.554489
-1.41264
-1.62199
-1.36554
-1.23473
-0.517839
-0.149476
-0.451928
-1.04147
-0.745056
-0.302121
0.0289592
-0.012783
0.27725
0.458796
0.442869
0.0602185
0.416593
0.5724
0.118352
0.773379
0.881681
1.48279
1.37242
0.999546
1.2008
1.35997
0.761205
0.258793
0.35913
0.574809
0.391042
-0.622244
-0.329821
-0.058201
-0.0421633
0.251096
0.0857578
0.294084
1.1363
-0.0268187
0.0392103
-0.714559
-0.901229
-1.34479
-0.968514
-1.07407
-0.854459
-0.504699
-1.45778
-1.15669
-0.869685
-0.701043
-0.0238677
0.288293
0.472908
0.821358
0.904057
0.227194
-0.0876359
0.72829
0.654228
0.744857
0.559544
0.502789
0.334154
0.236443
0.943824
0.832552
0.854055
0.66343
1.0282
0.277696
-0.697185
0.346524
-0.331289
0.207688
-0.262472
-0.00485449
1.22089
1.04978
-0.339714
-0.297556
-0.549204
-1.44088
-1.63083
-1.44873
-1.5197
-0.994341
-0.377893
-0.421067
-0.61356
-0.690079
-0.525495
-0.5117
0.40662
0.512399
0.622908
1.14503
0.637044
0.751021
1.00197
1.57427
0.378718
1.02777
0.404779
0.0104963
-0.102903
0.366148
0.602708
0.432374
1.09055
0.748914
0.487158
-0.638888
0.199141
0.0511523
-0.517735
0.170556
0.676343
0.698123
0.297146
-1.48935
-0.882841
-0.407048
-1.27787
-0.612725
-1.34463
-1.29654
-1.29828
-0.357083
-0.44639
-0.962587
-0.328428
-0.0022845
-0.0830442
0.0818738
1.03583
1.21232
1.47305
0.97647
0.922662
1.33663
0.99116
0.74931
0.199501
0.322516
0.131693
-0.125395
-0.0589195
0.393809
0.601783
0.513784
0.025224
0.341472
0.316211
0.295531
0.126897
0.0217853
0.206054
0.560374
0.37494
0.60718
-1.21454
-1.11
-0.802968
-1.19055
-0.537572
-0.352487
-0.531278
-0.772555
-0.069961
-0.477293
-0.975871
-0.558961
-0.371898
0.697235
0.2727
0.443943
1.03677
1.36461
0.283328
0.405378
0.598008
0.882928
0.944234
0.567484
0.254833
0.387575
0.0905602
-0.373122
-0.499153
-0.182035
0.735393
-0.0486051
0.513441
0.506753
0.353703
0.0990889
-0.0955248
0.0491585
-0.241713
0.546866
0.0969198
-1.16428
-1.70487
-1.1525
-1.12734
-0.365206
-0.0493648
-0.315334
-0.325142
-0.555695
-0.247431
-1.11047
-0.822277
0.0866812
0.272819
0.73033
0.52573
1.38964
0.508173
0.120113
-0.0235489
0.44813
0.465364
0.283581
0.350759
0.150685
0.303949
0.0483595
-0.419296
-0.115034
0.074007
0.37928
-0.0265234
0.106042
0.0100569
-0.516215
-0.282442
-0.629791
-0.590045
-0.440342
-0.0926594
-0.0471686
-0.781925
-0.718374
-0.81332
-0.941104
0.0422285
0.541613
0.0720711
-0.331196
-0.857239
-1.35479
-0.626773
-0.636895
-0.191477
-0.155362
1.43821
0.813645
0.748624
0.376248
0.126715
0.400005
0.360483
0.346389
0.333427
-0.00684889
0.0974453
0.0435142
-0.154617
-0.0516069
0.0282368
-0.00861938
0.0646331
-0.77402
-0.742669
-0.482545
-1.31035
-0.761921
-1.08683
-0.463979
-0.244364
-0.18963
-0.357912
-0.135458
0.194945
-0.349262
-0.701087
-0.342205
-0.151689
-0.382219
-0.740171
-0.904894
-0.790531
-0.946435
-0.978736
-0.44441
0.559455
1.15575
1.40012
1.62001
0.725162
0.543522
1.16592
1.09029
0.798915
0.533358
-0.0637363
-0.358643
-0.713344
0.130041
0.201678
-0.176992
-0.294182
0.413479
0.00321586
-0.120276
-0.412026
-1.22672
-1.16433
-0.879018
-0.283756
-0.469604
-0.757786
-0.67997
0.35227
-0.224361
-0.216692
0.338709
0.237742
0.837465
0.373409
-0.652325
-0.8482
0.191038
-0.553013
-0.770596
-0.404564
0.85481
1.31971
1.53633
1.58324
1.45689
0.632902
0.992606
1.2076
0.858996
0.568581
-0.00792515
-0.265128
-0.744598
-0.388359
0.0195945
-0.613208
-0.528698
-0.139274
0.0149316
-0.66459
-1.08236
-0.721678
-1.12681
-0.859116
-0.362597
-0.585903
-0.521584
-1.11856
0.211077
0.257458
0.744843
0.709185
0.381897
0.490863
0.355543
0.265196
-0.0498872
-0.275203
-0.39085
-0.68041
-0.133612
0.589142
1.29698
1.21457
1.06009
1.43968
0.913642
0.698953
1.58637
0.195284
0.335346
0.557691
0.10604
0.0436873
-0.0797308
-0.406368
-0.769401
-1.25884
0.0393164
-0.521641
-0.788224
-2.12291
-1.19226
-0.622805
-0.468431
-0.299488
-0.0837845
-0.136546
-0.192472
-0.445585
-0.146123
0.274449
0.953306
0.70785
0.796895
0.806437
0.237071
-0.27685
-0.568888
-1.17062
-0.801727
-0.502018
-0.0820919
0.680056
0.933618
1.2824
0.951846
0.933072
0.865364
1.07661
0.530919
0.721783
0.763863
0.201973
0.506517
-0.231134
-0.672345
-1.11344
-0.469575
-0.307147
-0.91441
-1.03726
-1.49401
-1.46536
-1.12696
-0.390039
-0.746789
0.128581
-0.147077
-0.259161
0.656371
0.253455
0.641341
1.00862
0.279803
0.170279
0.232867
0.209231
-0.189105
0.342476
-0.573242
-1.20403
-1.38314
-1.37439
-0.355498
0.296917
0.424122
1.12927
1.14057
0.903188
0.782156
1.46489
0.938151
0.469906
0.0685031
0.272258
-0.155113
-0.289425
-0.303336
-0.987832
-0.8516
-0.807562
-0.920657
-1.15851
-1.24172
-0.555601
-1.57306
-0.987137
-0.947982
-0.54812
-0.496192
0.904471
0.749277
0.307676
0.102596
0.0481747
-0.474481
-0.13152
-0.63572
-0.352855
0.238438
-0.667267
-1.13811
-1.6273
-0.879831
0.0253955
0.199474
0.318753
1.4212
1.79357
0.86943
1.15126
1.65836
1.40731
0.528022
0.199322
0.128643
0.00110279
0.433235
-0.216953
-0.380664
-0.733712
-0.661671
-0.94273
-1.44079
-0.963001
-0.867556
-0.969391
-1.02992
-0.0900634
-0.110004
-0.509619
0.493345
-0.0812691
0.148786
-0.24004
-0.628818
0.206795
-0.0828927
-0.94909
-0.227036
-0.362714
-0.407338
-1.08085
-0.538339
-0.38352
0.503491
-0.225425
0.121796
0.227701
1.36992
1.14736
0.596255
0.562801
0.0986264
0.199259
0.108422
-0.173378
-0.033432
-0.0660136
-0.616709
-0.932687
-1.59646
-1.1496
-1.01316
-0.798342
-1.28596
-0.481524
-0.687038
-0.673097
0.0757406
-0.00598455
-1.00011
-0.493112
0.406633
-0.378981
0.136189
-0.206824
0.064298
0.595375
-0.0398449
0.210017
-0.486409
-0.269327
-0.279419
-0.304891
0.0800626
0.624003
0.508248
0.69341
0.228883
0.641346
0.538123
0.230304
0.452505
0.145087
0.247097
-0.03798
-0.266623
-0.0813221
-0.114872
0.109754
-1.16938
-1.0554
-1.56297
-0.749194
0.0019613
-0.738736
-0.624906
-0.206413
-0.0945244
-0.384137
0.211929
-0.845877
-0.761055
0.0636859
-0.221582
-0.536833
-0.897082
0.0729353
-0.128384
0.210348
-0.1208
-0.603002
0.176685
0.0776914
0.915593
0.133016
0.426278
0.83261
1.27198
0.389999
0.360367
-0.0265745
0.14785
0.404705
-0.0964568
-0.048173
-0.362949
0.495113
-0.0435752
-0.0938472
-0.813636
-1.20978
-1.38561
-1.08532
-1.04075
-0.597602
-0.470127
0.135054
0.257114
0.900329
0.398887
0.623406
-0.0707127
-0.433644
0.153388
-0.293872
0.0436149
-0.719498
-1.4972
-0.646151
-0.420223
-0.174885
-0.0561174
0.0194657
0.627901
0.728199
0.656153
0.550369
0.772245
-0.26424
-0.0831123
-0.313886
0.351651
0.348034
-0.507358
0.371097
0.870405
0.646739
0.241272
0.048888
0.750315
-0.192239
-1.47157
-1.95451
-0.77669
-0.795767
-0.299855
-0.771203
-0.0241541
0.542576
0.864092
0.451192
0.212075
0.229525
-0.086553
-0.453491
-0.316856
-0.527997
-1.54614
-1.44776
-0.439113
-0.257494
-0.0327682
-0.0835563
0.72504
1.24917
1.09127
0.42725
0.629022
0.471589
-0.599481
-0.256064
-0.15473
-0.388506
-0.0223699
0.0212519
0.460191
1.59302
1.17168
0.0928387
0.226895
0.0458431
0.304504
-0.540831
-0.594725
-0.615451
-0.227399
-0.183119
-0.0160422
0.583829
0.852171
2.00164
1.25535
0.185427
0.451485
0.259453
0.339055
-0.533667
-0.593607
-1.07007
-1.2898
-1.1107
-0.541661
-0.0614881
-0.0753677
0.884311
1.39226
0.448714
0.428497
0.463356
0.686849
0.0286947
0.0613674
0.262933
-0.221888
-0.127015
-0.202391
0.122187
1.08159
1.10325
0.841772
0.868614
0.174495
-0.353238
-0.627912
-0.694101
-0.11028
-0.00100075
-0.325957
0.398157
1.649
1.48947
1.6373
1.31214
0.954195
0.76734
0.025004
-0.456973
-0.811121
-1.27412
-1.15884
-1.48197
-1.86287
-1.25876
-0.228339
0.0268682
0.57874
0.631892
0.903084
0.961873
0.613334
1.21291
0.47763
0.660456
0.331683
0.748956
-0.000602009
0.0948074
0.498618
0.882206
1.00348
1.20879
1.30856
0.580229
-0.532793
-1.08164
-0.609388
-0.686003
-0.289868
0.643062
0.457704
1.32645
1.3413
1.75544
1.60474
1.39858
1.33227
-0.383988
-0.0907964
-1.14779
-1.72758
-0.847976
-1.41872
-1.83277
-1.78525
-0.98853
-0.105043
0.418169
0.834594
1.44003
1.39251
0.886419
0.414406
0.0884723
0.356784
0.412315
0.0545594
-0.0508412
0.776485
1.15223
1.29049
1.33029
0.935756
0.489903
-0.19804
-0.00939162
-0.166489
-1.1137
-0.537135
-0.294309
-0.14786
0.815904
0.883625
1.10725
2.33391
2.83746
2.1119
1.35159
-0.361026
-0.788718
-1.59055
-2.23067
-1.68998
-1.78793
-1.51106
-1.46047
-1.22048
-0.674507
0.384267
0.80763
0.995853
1.49444
0.491993
0.654616
0.110565
0.247194
0.146161
0.066688
-0.331468
0.416329
0.431912
0.857645
0.428171
0.433046
0.383542
0.00428974
0.461223
0.318593
-0.515525
-0.202154
0.0115164
0.0275196
0.580232
0.958259
1.54201
1.91238
2.3404
1.01861
0.48266
-0.436619
-1.01594
-2.01337
-2.1648
-1.95795
-1.43853
-1.59927
-1.60665
-2.06176
-1.25172
-0.3194
0.044517
0.792203
0.545577
0.575712
0.218274
-0.0323983
0.348432
0.149301
0.107979
0.261061
0.55712
0.146925
-0.259934
0.31976
0.28761
-0.0960425
-0.449058
0.506555
0.114851
0.416458
0.384729
0.0345348
0.472439
0.529091
-0.00235902
0.940404
1.34379
1.13998
0.335691
0.25487
-0.763847
-1.129
-1.65114
-2.16399
-1.74014
-1.86469
-2.1243
-2.49696
-1.71073
-0.495693
-0.500307
0.140821
0.756139
0.86382
0.288442
0.372496
0.0468571
0.0110996
0.169393
-0.0772453
0.341807
0.14384
1.05122
0.648458
0.0320355
-0.169315
0.0845687
0.143442
0.441119
0.623906
0.427745
0.452013
0.0223401
0.117775
0.558971
0.000407868
0.375775
0.361908
-0.209634
0.245798
0.179925
-0.82399
-1.263
-1.85488
-2.16067
-2.0617
-1.19511
-1.74014
-2.38867
-1.58302
-0.85087
-0.858342
-0.154983
0.60271
0.547614
0.492851
0.0483889
0.33557
0.0819043
0.120527
0.25456
-0.0884355
0.735452
0.957871
0.157256
-0.599349
-0.334267
-0.0294397
0.0254948
-0.208741
0.631499
0.993651
0.8497
0.875113
0.444845
0.529909
-0.436656
-0.880308
-0.548765
0.259288
-0.0285217
-0.32924
-0.968559
-1.38933
-2.22596
-2.22959
-1.86057
-1.48649
-0.787233
-1.28079
-0.785631
-0.938248
-1.34045
-0.53715
0.950049
0.180635
-0.950002
-0.500158
0.0763391
0.119436
-0.290565
0.0386478
-0.0397788
-0.139939
0.803091
0.258436
-0.958286
0.303353
0.638432
0.567147
0.0756359
0.439593
0.836161
0.396533
0.800293
0.195723
0.671112
0.0592749
0.125134
-0.975225
0.251154
0.336761
-0.312034
-0.975668
-1.54996
-1.9349
-1.82423
-1.44678
-1.37157
-0.899849
-0.440487
-0.829686
-0.531616
-0.727803
-0.21625
0.63055
-0.295486
-0.380493
-0.345346
-0.156643
-0.574804
-0.223196
-0.104999
0.126992
-0.245943
-0.00477956
-0.255438
-1.33123
-0.538501
0.000444519
0.0876098
0.543015
0.819413
0.818737
0.317554
0.105553
-0.0983958
0.343442
-0.0463219
-0.619219
-0.205734
0.0362081
0.0414924
-0.0468351
-1.18588
-1.15591
-1.36349
-0.909896
-1.02683
-0.606126
-0.814259
0.201914
-0.491169
-0.531504
-0.430867
-0.576667
-0.467321
0.563714
0.133233
-0.137234
-0.638282
-0.494252
-0.178048
0.0487888
-0.147695
-0.195065
-0.606819
-1.06765
-1.12921
-1.1733
-0.79846
0.0829822
0.211888
0.672889
0.307894
-0.447546
-0.0965734
-0.247321
0.184067
-0.21024
-0.268667
-0.0435432
-0.0678954
-0.0708994
-0.744526
-1.13128
-0.779166
-0.962478
-1.39591
-0.826231
-0.960334
-0.791626
-1.19473
-1.0109
-1.40458
-0.43565
-0.370378
-0.214949
-0.282797
-0.259177
0.628085
-0.700822
-0.29798
-0.376212
-0.763226
-0.157228
-1.14049
-1.13911
-1.14807
-1.25008
-0.946523
-0.919419
-0.204565
0.141934
-0.000625463
-0.372378
-0.187764
-0.253249
-0.417648
-0.451744
-0.192731
-0.589364
-0.830653
-0.749142
-0.516307
-0.653149
-0.53379
-0.198392
-1.13654
-1.89093
-1.70403
-1.53409
-1.87755
-1.91644
-1.06708
-1.25854
-1.26513
-0.342296
-0.25584
-0.671703
0.00753799
-0.138665
0.0632528
-0.787908
-1.11022
-0.242631
-1.15634
-1.36171
-1.33337
-0.968085
-0.760415
-0.914915
-1.34353
-0.349759
-0.713894
-0.522166
0.0321669
-0.0781056
-0.825124
-0.89714
-0.593943
-1.3616
-0.876936
-0.83887
-0.40194
-0.466517
-1.22086
-0.0738233
-0.454452
-1.44404
-1.625
-1.94358
-1.93175
-2.62436
-2.71344
-2.12203
-1.28417
-0.833666
-0.579283
-0.334756
-0.248786
-0.0584937
-0.571355
-0.633224
-1.95531
-1.71512
-1.55923
-1.34623
-1.90673
-1.8206
-1.74995
-0.781899
-0.422961
-0.596263
0.384483
0.0895757
0.151471
-0.237337
-0.118179
-0.893052
-1.267
-1.34927
-1.37994
-0.980678
-0.754596
-0.00821102
-0.553642
-0.646449
-0.471232
-0.615265
-0.830526
-0.510744
-1.04132
-1.81211
-2.02282
-2.9287
-2.36833
-1.69079
-1.40284
-0.33864
-0.819693
-0.426494
-0.703384
-0.593426
-1.44097
-1.47062
-1.67389
-1.67125
-1.18695
-1.67309
-1.47622
-1.15768
-0.97901
-0.176372
-0.164789
-0.218404
-0.436466
-0.822612
-0.421811
-0.612617
-1.00828
-1.63056
-1.41938
-1.14997
-1.1356
-0.871116
-0.384021
-1.08634
-1.23302
-1.29971
-1.23538
-0.650125
-0.220732
-0.713319
-1.50132
-1.92575
-1.9389
-1.5749
-1.33701
-0.950623
-0.383411
-0.837331
-0.79218
-0.720767
-1.0474