# vtk DataFile Version 3.0
Unnamed
ASCII

DATASET UNSTRUCTURED_GRID
POINTS 100 float
0 0.0 0.0
0.1 0.0 0.0
0.2 0.0 0.0
0.3 0.0 0.0
0.4 0.0 0.0
0.5 0.0 0.0
0.6000000000000001 0.0 0.0
0.7000000000000001 0.0 0.0
0.8 0.0 0.0
0.9 0.0 0.0
1 0.0 0.0
1.1 0.0 0.0
1.2 0.0 0.0
1.3 0.0 0.0
1.4 0.0 0.0
1.5 0.0 0.0
1.6 0.0 0.0
1.7 0.0 0.0
1.8 0.0 0.0
1.9 0.0 0.0
2 0.0 0.0
2.1 0.0 0.0
2.2 0.0 0.0
2.3 0.0 0.0
2.4 0.0 0.0
2.5 0.0 0.0
2.6 0.0 0.0
2.7 0.0 0.0
2.8 0.0 0.0
2.9 0.0 0.0
3 0.0 0.0
3.1 0.0 0.0
3.2 0.0 0.0
3.3 0.0 0.0
3.4 0.0 0.0
3.5 0.0 0.0
3.6 0.0 0.0
3.7 0.0 0.0
3.8 0.0 0.0
3.9 0.0 0.0
4 0.0 0.0
4.100000000000001 0.0 0.0
4.2 0.0 0.0
4.3 0.0 0.0
4.4 0.0 0.0
4.5 0.0 0.0
4.600000000000001 0.0 0.0
4.7 0.0 0.0
4.800000000000001 0.0 0.0
4.9 0.0 0.0
5 0.0 0.0
5.100000000000001 0.0 0.0
5.2 0.0 0.0
5.300000000000001 0.0 0.0
5.4 0.0 0.0
5.5 0.0 0.0
5.600000000000001 0.0 0.0
5.7 0.0 0.0
5.800000000000001 0.0 0.0
5.9 0.0 0.0
6 0.0 0.0
6.100000000000001 0.0 0.0
6.2 0.0 0.0
6.300000000000001 0.0 0.0
6.4 0.0 0.0
6.5 0.0 0.0
6.600000000000001 0.0 0.0
6.7 0.0 0.0
6.800000000000001 0.0 0.0
6.9 0.0 0.0
7 0.0 0.0
7.100000000000001 0.0 0.0
7.2 0.0 0.0
7.300000000000001 0.0 0.0
7.4 0.0 0.0
7.5 0.0 0.0
7.600000000000001 0.0 0.0
7.7 0.0 0.0
7.800000000000001 0.0 0.0
7.9 0.0 0.0
8 0.0 0.0
8.1 0.0 0.0
8.200000000000001 0.0 0.0
8.300000000000001 0.0 0.0
8.4 0.0 0.0
8.5 0.0 0.0
8.6 0.0 0.0
8.700000000000001 0.0 0.0
8.800000000000001 0.0 0.0
8.9 0.0 0.0
9 0.0 0.0
9.1 0.0 0.0
9.200000000000001 0.0 0.0
9.300000000000001 0.0 0.0
9.4 0.0 0.0
9.5 0.0 0.0
9.600000000000001 0.0 0.0
9.700000000000001 0.0 0.0
9.800000000000001 0.0 0.0
9.9 0.0 0.0

CELLS 99 297
2 0 1
2 1 2
2 2 3
2 3 4
2 4 5
2 5 6
2 6 7
2 7 8
2 8 9
2 9 10
2 10 11
2 11 12
2 12 13
2 13 14
2 14 15
2 15 16
2 16 17
2 17 18
2 18 19
2 19 20
2 20 21
2 21 22
2 22 23
2 23 24
2 24 25
2 25 26
2 26 27
2 27 28
2 28 29
2 29 30
2 30 31
2 31 32
2 32 33
2 33 34
2 34 35
2 35 36
2 36 37
2 37 38
2 38 39
2 39 40
2 40 41
2 41 42
2 42 43
2 43 44
2 44 45
2 45 46
2 46 47
2 47 48
2 48 49
2 49 50
2 50 51
2 51 52
2 52 53
2 53 54
2 54 55
2 55 56
2 56 57
2 57 58
2 58 59
2 59 60
2 60 61
2 61 62
2 62 63
2 63 64
2 64 65
2 65 66
2 66 67
2 67 68
2 68 69
2 69 70
2 70 71
2 71 72
2 72 73
2 73 74
2 74 75
2 75 76
2 76 77
2 77 78
2 78 79
2 79 80
2 80 81
2 81 82
2 82 83
2 83 84
2 84 85
2 85 86
2 86 87
2 87 88
2 88 89
2 89 90
2 90 91
2 91 92
2 92 93
2 93 94
2 94 95
2 95 96
2 96 97
2 97 98
2 98 99

CELL_TYPES 99
3
3
3
3
3
3
3
3
3
3
3
3
3
3
3
3
3
3
3
3
3
3
3
3
3
3
3
3
3
3
3
3
3
3
3
3
3
3
3
3
3
3
3
3
3
3
3
3
3
3
3
3
3
3
3
3
3
3
3
3
3
3
3
3
3
3
3
3
3
3
3
3
3
3
3
3
3
3
3
3
3
3
3
3
3
3
3
3
3
3
3
3
3
3
3
3
3
3
3

POINT_DATA 100
SCALARS v_0 float
LOOKUP_TABLE default
0.608202
0.345435
0.251811
0.48553
0.0439652
0.112409
0.0398856
0.323695
0.477811
0.625408
0.519852
0.561244
0.0966606
-0.159286
-0.415886
-0.425628
-0.220016
-0.243274
-0.349387
-0.254254
-0.185275
-0.0933332
-0.297041
-0.460803
-0.357894
-0.375658
-0.298633
0.0602167
0.0729266
-0.083241
-0.224468
-0.26779
-0.616534
-0.52485
-0.243605
-0.0399045
0.107725
0.0969555
0.201835
0.257233
0.332875
0.230223
0.149825
-0.00221141
0.0489061
0.437785
0.296189
0.657802
0.655105
0.798654
0.92469
0.75913
0.780604
0.462036
0.582594
0.677604
1.00838
0.798572
0.857594
0.80477
1.12011
0.892199
0.804523
1.02895
0.854708
0.566791
0.576058
0.388056
0.559696
0.614908
0.506963
0.631172
0.957159
1.15021
1.02705
0.677836
1.1092
1.23765
1.11201
0.964631
0.756014
0.848774
0.993263
0.828111
0.789642
0.97093
0.919898
0.715791
0.311783
0.175393
0.238999
0.435363
0.552912
0.524161
0.344302
0.58922
0.530374
0.782501
1.18674
0.984711
